# vtk DataFile Version 3.0
3D mesh with flat surface
ASCII
DATASET UNSTRUCTURED_GRID
POINTS 2684 double
57.600000	7.000000	0.000000
57.600000	-7.000000	0.000000
-9.600000	-7.000000	0.000000
-9.600000	7.000000	0.000000
57.600000	7.000000	-32.690000
57.600000	-7.000000	-32.690000
-9.600000	-7.000000	-32.690000
-9.600000	7.000000	-32.690000
2087.600000	2037.000000	0.000000
2087.600000	-2037.000000	0.000000
-2039.600000	-2037.000000	0.000000
-2039.600000	2037.000000	0.000000
2087.600000	2037.000000	-3301.390000
2087.600000	-2037.000000	-3301.390000
-2039.600000	-2037.000000	-3301.390000
-2039.600000	2037.000000	-3301.390000
0.000000	-5.000000	0.000000
2.000000	-5.000000	0.000000
4.000000	-5.000000	0.000000
6.000000	-5.000000	0.000000
8.000000	-5.000000	0.000000
10.000000	-5.000000	0.000000
12.000000	-5.000000	0.000000
14.000000	-5.000000	0.000000
16.000000	-5.000000	0.000000
18.000000	-5.000000	0.000000
20.000000	-5.000000	0.000000
22.000000	-5.000000	0.000000
24.000000	-5.000000	0.000000
26.000000	-5.000000	0.000000
28.000000	-5.000000	0.000000
30.000000	-5.000000	0.000000
32.000000	-5.000000	0.000000
34.000000	-5.000000	0.000000
36.000000	-5.000000	0.000000
38.000000	-5.000000	0.000000
40.000000	-5.000000	0.000000
42.000000	-5.000000	0.000000
44.000000	-5.000000	0.000000
46.000000	-5.000000	0.000000
48.000000	-5.000000	0.000000
0.000000	0.000000	0.000000
2.000000	0.000000	0.000000
4.000000	0.000000	0.000000
6.000000	0.000000	0.000000
8.000000	0.000000	0.000000
10.000000	0.000000	0.000000
12.000000	0.000000	0.000000
14.000000	0.000000	0.000000
16.000000	0.000000	0.000000
18.000000	0.000000	0.000000
20.000000	0.000000	0.000000
22.000000	0.000000	0.000000
24.000000	0.000000	0.000000
26.000000	0.000000	0.000000
28.000000	0.000000	0.000000
30.000000	0.000000	0.000000
32.000000	0.000000	0.000000
34.000000	0.000000	0.000000
36.000000	0.000000	0.000000
38.000000	0.000000	0.000000
40.000000	0.000000	0.000000
42.000000	0.000000	0.000000
44.000000	0.000000	0.000000
46.000000	0.000000	0.000000
48.000000	0.000000	0.000000
0.000000	5.000000	0.000000
2.000000	5.000000	0.000000
4.000000	5.000000	0.000000
6.000000	5.000000	0.000000
8.000000	5.000000	0.000000
10.000000	5.000000	0.000000
12.000000	5.000000	0.000000
14.000000	5.000000	0.000000
16.000000	5.000000	0.000000
18.000000	5.000000	0.000000
20.000000	5.000000	0.000000
22.000000	5.000000	0.000000
24.000000	5.000000	0.000000
26.000000	5.000000	0.000000
28.000000	5.000000	0.000000
30.000000	5.000000	0.000000
32.000000	5.000000	0.000000
34.000000	5.000000	0.000000
36.000000	5.000000	0.000000
38.000000	5.000000	0.000000
40.000000	5.000000	0.000000
42.000000	5.000000	0.000000
44.000000	5.000000	0.000000
46.000000	5.000000	0.000000
48.000000	5.000000	0.000000
57.600000	5.000000	0.000000
57.600000	3.000000	0.000000
57.600000	1.000000	0.000000
57.600000	-1.000000	0.000000
57.600000	-3.000000	0.000000
57.600000	-5.000000	0.000000
55.623529	-7.000000	0.000000
53.647059	-7.000000	0.000000
51.670588	-7.000000	0.000000
49.694118	-7.000000	0.000000
47.717647	-7.000000	0.000000
45.741176	-7.000000	0.000000
43.764706	-7.000000	0.000000
41.788235	-7.000000	0.000000
39.811765	-7.000000	0.000000
37.835294	-7.000000	0.000000
35.858824	-7.000000	0.000000
33.882353	-7.000000	0.000000
31.905882	-7.000000	0.000000
29.929412	-7.000000	0.000000
27.952941	-7.000000	0.000000
25.976471	-7.000000	0.000000
24.000000	-7.000000	0.000000
22.023529	-7.000000	0.000000
20.047059	-7.000000	0.000000
18.070588	-7.000000	0.000000
16.094118	-7.000000	0.000000
14.117647	-7.000000	0.000000
12.141176	-7.000000	0.000000
10.164706	-7.000000	0.000000
8.188235	-7.000000	0.000000
6.211765	-7.000000	0.000000
4.235294	-7.000000	0.000000
2.258824	-7.000000	0.000000
0.282353	-7.000000	0.000000
-1.694118	-7.000000	0.000000
-3.670588	-7.000000	0.000000
-5.647059	-7.000000	0.000000
-7.623529	-7.000000	0.000000
-9.600000	-5.000000	0.000000
-9.600000	-3.000000	0.000000
-9.600000	-1.000000	0.000000
-9.600000	1.000000	0.000000
-9.600000	3.000000	0.000000
-9.600000	5.000000	0.000000
-7.623529	7.000000	0.000000
-5.647059	7.000000	0.000000
-3.670588	7.000000	0.000000
-1.694118	7.000000	0.000000
0.282353	7.000000	0.000000
2.258824	7.000000	0.000000
4.235294	7.000000	0.000000
6.211765	7.000000	0.000000
8.188235	7.000000	0.000000
10.164706	7.000000	0.000000
12.141176	7.000000	0.000000
14.117647	7.000000	0.000000
16.094118	7.000000	0.000000
18.070588	7.000000	0.000000
20.047059	7.000000	0.000000
22.023529	7.000000	0.000000
24.000000	7.000000	0.000000
25.976471	7.000000	0.000000
27.952941	7.000000	0.000000
29.929412	7.000000	0.000000
31.905882	7.000000	0.000000
33.882353	7.000000	0.000000
35.858824	7.000000	0.000000
37.835294	7.000000	0.000000
39.811765	7.000000	0.000000
41.788235	7.000000	0.000000
43.764706	7.000000	0.000000
45.741176	7.000000	0.000000
47.717647	7.000000	0.000000
49.694118	7.000000	0.000000
51.670588	7.000000	0.000000
53.647059	7.000000	0.000000
55.623529	7.000000	0.000000
57.600000	3.500000	-32.690000
57.600000	0.000000	-32.690000
57.600000	-3.500000	-32.690000
53.647059	-7.000000	-32.690000
49.694118	-7.000000	-32.690000
45.741176	-7.000000	-32.690000
41.788235	-7.000000	-32.690000
37.835294	-7.000000	-32.690000
33.882353	-7.000000	-32.690000
29.929412	-7.000000	-32.690000
25.976471	-7.000000	-32.690000
22.023529	-7.000000	-32.690000
18.070588	-7.000000	-32.690000
14.117647	-7.000000	-32.690000
10.164706	-7.000000	-32.690000
6.211765	-7.000000	-32.690000
2.258824	-7.000000	-32.690000
-1.694118	-7.000000	-32.690000
-5.647059	-7.000000	-32.690000
-9.600000	-3.500000	-32.690000
-9.600000	-0.000000	-32.690000
-9.600000	3.500000	-32.690000
-5.647059	7.000000	-32.690000
-1.694118	7.000000	-32.690000
2.258824	7.000000	-32.690000
6.211765	7.000000	-32.690000
10.164706	7.000000	-32.690000
14.117647	7.000000	-32.690000
18.070588	7.000000	-32.690000
22.023529	7.000000	-32.690000
25.976471	7.000000	-32.690000
29.929412	7.000000	-32.690000
33.882353	7.000000	-32.690000
37.835294	7.000000	-32.690000
41.788235	7.000000	-32.690000
45.741176	7.000000	-32.690000
49.694118	7.000000	-32.690000
53.647059	7.000000	-32.690000
57.600000	7.000000	-1.943849
57.600000	7.000000	-4.003285
57.600000	7.000000	-6.185181
57.600000	7.000000	-8.496820
57.600000	7.000000	-10.945915
57.600000	7.000000	-13.540642
57.600000	7.000000	-16.289659
57.600000	7.000000	-19.202140
57.600000	7.000000	-22.287808
57.600000	7.000000	-25.556958
57.600000	7.000000	-29.020503
57.600000	-7.000000	-1.943849
57.600000	-7.000000	-4.003285
57.600000	-7.000000	-6.185181
57.600000	-7.000000	-8.496820
57.600000	-7.000000	-10.945915
57.600000	-7.000000	-13.540642
57.600000	-7.000000	-16.289659
57.600000	-7.000000	-19.202140
57.600000	-7.000000	-22.287808
57.600000	-7.000000	-25.556958
57.600000	-7.000000	-29.020503
-9.600000	-7.000000	-1.943849
-9.600000	-7.000000	-4.003285
-9.600000	-7.000000	-6.185181
-9.600000	-7.000000	-8.496820
-9.600000	-7.000000	-10.945915
-9.600000	-7.000000	-13.540642
-9.600000	-7.000000	-16.289659
-9.600000	-7.000000	-19.202140
-9.600000	-7.000000	-22.287808
-9.600000	-7.000000	-25.556958
-9.600000	-7.000000	-29.020503
-9.600000	7.000000	-1.943849
-9.600000	7.000000	-4.003285
-9.600000	7.000000	-6.185181
-9.600000	7.000000	-8.496820
-9.600000	7.000000	-10.945915
-9.600000	7.000000	-13.540642
-9.600000	7.000000	-16.289659
-9.600000	7.000000	-19.202140
-9.600000	7.000000	-22.287808
-9.600000	7.000000	-25.556958
-9.600000	7.000000	-29.020503
2087.600000	1222.200000	0.000000
2087.600000	407.400000	0.000000
2087.600000	-407.400000	0.000000
2087.600000	-1222.200000	0.000000
1262.160000	-2037.000000	0.000000
436.720000	-2037.000000	0.000000
-388.720000	-2037.000000	0.000000
-1214.160000	-2037.000000	0.000000
-2039.600000	-1222.200000	0.000000
-2039.600000	-407.400000	0.000000
-2039.600000	407.400000	0.000000
-2039.600000	1222.200000	0.000000
-1214.160000	2037.000000	0.000000
-388.720000	2037.000000	0.000000
436.720000	2037.000000	0.000000
1262.160000	2037.000000	0.000000
2087.600000	1222.200000	-3301.390000
2087.600000	407.400000	-3301.390000
2087.600000	-407.400000	-3301.390000
2087.600000	-1222.200000	-3301.390000
1262.160000	-2037.000000	-3301.390000
436.720000	-2037.000000	-3301.390000
-388.720000	-2037.000000	-3301.390000
-1214.160000	-2037.000000	-3301.390000
-2039.600000	-1222.200000	-3301.390000
-2039.600000	-407.400000	-3301.390000
-2039.600000	407.400000	-3301.390000
-2039.600000	1222.200000	-3301.390000
-1214.160000	2037.000000	-3301.390000
-388.720000	2037.000000	-3301.390000
436.720000	2037.000000	-3301.390000
1262.160000	2037.000000	-3301.390000
2087.600000	2037.000000	-825.347500
2087.600000	2037.000000	-1650.695000
2087.600000	2037.000000	-2476.042500
2087.600000	-2037.000000	-825.347500
2087.600000	-2037.000000	-1650.695000
2087.600000	-2037.000000	-2476.042500
-2039.600000	-2037.000000	-825.347500
-2039.600000	-2037.000000	-1650.695000
-2039.600000	-2037.000000	-2476.042500
-2039.600000	2037.000000	-825.347500
-2039.600000	2037.000000	-1650.695000
-2039.600000	2037.000000	-2476.042500
52.633535	-2.032687	0.000000
-4.633535	2.032687	0.000000
52.553949	2.156772	0.000000
-4.553949	-2.156772	0.000000
-6.654072	-0.241387	0.000000
54.654072	0.241387	0.000000
49.658794	2.500000	0.000000
-1.475256	-2.599870	0.000000
49.759142	-2.357747	0.000000
-1.665902	2.500000	0.000000
54.767289	-4.271992	0.000000
-6.767289	4.271992	0.000000
-6.848703	-4.357853	0.000000
54.848703	4.357853	0.000000
-2.741184	-0.123307	0.000000
50.741184	0.123307	0.000000
3.452012	-2.234421	0.000000
7.000000	-2.500000	0.000000
11.000000	-2.500000	0.000000
15.000000	-2.500000	0.000000
19.000000	-2.500000	0.000000
23.000000	-2.500000	0.000000
27.000000	-2.500000	0.000000
31.000000	-2.500000	0.000000
35.000000	-2.500000	0.000000
39.000000	-2.500000	0.000000
43.000000	-2.500000	0.000000
3.451608	2.379232	0.000000
7.000000	2.500000	0.000000
11.000000	2.500000	0.000000
15.000000	2.500000	0.000000
19.000000	2.500000	0.000000
23.000000	2.500000	0.000000
27.000000	2.500000	0.000000
[...]
CELL_DATA 13469
SCALARS res0 double 1
LOOKUP_TABLE default
100.000000 100.000000 100.000000 100.000000 100.000000 100.000000 100.000000 100.000000 100.000000 100.000000 100.000000 100.000000 100.000000 100.000000 100.000000 100.000000 100.000000 100.000000 100.000000 100.000000 100.000000 100.000000 100.000000 100.000000 100.000000 100.000000 100.000000 100.000000 100.000000 100.000000 100.000000 100.000000 100.000000 100.000000 100.000000 100.000000 100.000000 100.000000 100.000000 100.000000 100.000000 100.000000 100.000000 100.000000 100.000000 100.000000 100.000000 100.000000 100.000000 100.000000 100.000000 100.000000 100.000000 100.000000 100.000000 100.000000 100.000000 100.000000 100.000000 100.000000 100.000000 100.000000 100.000000 100.000000 100.000000 100.000000 100.000000 100.000000 100.000000 100.000000 100.000000 100.000000 100.000000 100.000000 100.000000 100.000000 100.000000 100.000000 100.000000 100.000000 100.000000 100.000000 100.000000 100.000000 100.000000 100.000000 100.000000 100.000000 100.000000 100.000000 100.000000 100.000000 100.000000 100.000000 100.000000 100.000000 100.000000 100.000000 100.000000 100.000000 100.000000 100.000000 100.000000 100.000000 100.000000 100.000000 100.000000 100.000000 100.000000 100.000000 100.000000 100.000000 100.000000 100.000000 100.000000 100.000000 100.000000 100.000000 100.000000 100.000000 100.000000 100.000000 100.000000 100.000000 100.000000 100.000000 100.000000 100.000000 100.000000 100.000000 100.000000 100.000000 100.000000 100.000000 100.000000 100.000000 100.000000 100.000000 100.000000 100.000000 100.000000 100.000000 100.000000 100.000000 100.000000 100.000000 100.000000 100.000000 100.000000 100.000000 100.000000 100.000000 100.000000 100.000000 100.000000 100.000000 100.000000 100.000000 100.000000 100.000000 100.000000 100.000000 100.000000 100.000000 100.000000 100.000000 100.000000 100.000000 100.000000 100.000000 100.000000 100.000000 100.000000 100.000000 100.000000 100.000000 100.000000 100.000000 100.000000 100.000000 100.000000 100.000000 100.000000 100.000000 100.000000 100.000000 100.000000 100.000000 100.000000 100.000000 100.000000 100.000000 100.000000 100.000000 100.000000 100.000000 100.000000 100.000000 100.000000 100.000000 100.000000 100.000000 100.000000 100.000000 100.000000 100.000000 100.000000 100.000000 100.000000 100.000000 100.000000 100.000000 100.000000 100.000000 100.000000 100.000000 100.000000 100.000000 100.000000 100.000000 100.000000 100.000000 100.000000 100.000000 100.000000 100.000000 100.000000 100.000000 100.000000 100.000000 100.000000 100.000000 100.000000 100.000000 100.000000 100.000000 100.000000 100.000000 100.000000 100.000000 100.000000 100.000000 100.000000 100.000000 100.000000 100.000000 100.000000 100.000000 100.000000 100.000000 100.000000 100.000000 100.000000 100.000000 100.000000 100.000000 100.000000 100.000000 100.000000 100.000000 100.000000 100.000000 100.000000 100.000000 100.000000 100.000000 100.000000 100.000000 100.000000 100.000000 100.000000 100.000000 100.000000 100.000000 100.000000 100.000000 100.000000 100.000000 100.000000 100.000000 100.000000 100.000000 100.000000 100.000000 100.000000 100.000000 100.000000 100.000000 100.000000 100.000000 100.000000 100.000000 100.000000 100.000000 100.000000 100.000000 100.000000 100.000000 100.000000 100.000000 100.000000 100.000000 100.000000 100.000000 100.000000 100.000000 100.000000 100.000000 100.000000 100.000000 100.000000 100.000000 100.000000 100.000000 100.000000 100.000000 100.000000 100.000000 100.000000 100.000000 100.000000 100.000000 100.000000 100.000000 100.000000 100.000000 100.000000 100.000000 100.000000 100.000000 100.000000 100.000000 100.000000 100.000000 100.000000 100.000000 100.000000 100.000000 100.000000 100.000000 100.000000 100.000000 100.000000 100.000000 100.000000 100.000000 100.000000 100.000000 100.000000 100.000000 100.000000 100.000000 100.000000 100.000000 100.000000 100.000000 100.000000 100.000000 100.000000 100.000000 100.000000 100.000000 100.000000 100.000000 100.000000 100.000000 100.000000 100.000000 100.000000 100.000000 100.000000 100.000000 100.000000 100.000000 100.000000 100.000000 100.000000 100.000000 100.000000 100.000000 100.000000 100.000000 100.000000 100.000000 100.000000 100.000000 100.000000 100.000000 100.000000 100.000000 100.000000 100.000000 100.000000 100.000000 100.000000 100.000000 100.000000 100.000000 100.000000 100.000000 100.000000 100.000000 100.000000 100.000000 100.000000 100.000000 100.000000 100.000000 100.000000 100.000000 100.000000 100.000000 100.000000 100.000000 100.000000 100.000000 100.000000 100.000000 100.000000 100.000000 100.000000 100.000000 100.000000 100.000000 100.000000 100.000000 100.000000 100.000000 100.000000 100.000000 100.000000 100.000000 100.000000 100.000000 100.000000 100.000000 100.000000 100.000000 100.000000 100.000000 100.000000 100.000000 100.000000 100.000000 100.000000 100.000000 100.000000 100.000000 100.000000 100.000000 100.000000 100.000000 100.000000 100.000000 100.000000 100.000000 100.000000 100.000000 100.000000 100.000000 100.000000 100.000000 100.000000 100.000000 100.000000 100.000000 100.000000 100.000000 100.000000 100.000000 100.000000 100.000000 100.000000 100.000000 100.000000 100.000000 100.000000 100.000000 100.000000 100.000000 100.000000 100.000000 100.000000 100.000000 100.000000 100.000000 100.000000 100.000000 100.000000 100.000000 100.000000 100.000000 100.000000 100.000000 100.000000 100.000000 100.000000 100.000000 100.000000 100.000000 100.000000 100.000000 100.000000 100.000000 100.000000 100.000000 100.000000 100.000000 100.000000 100.000000 100.000000 100.000000 100.000000 100.000000 100.000000 100.000000 100.000000 100.000000 100.000000 100.000000 100.000000 100.000000 100.000000 100.000000 100.000000 100.000000 100.000000 100.000000 100.000000 100.000000 100.000000 100.000000 100.000000 100.000000 100.000000 100.000000 100.000000 100.000000 100.000000 100.000000 100.000000 100.000000 100.000000 100.000000 100.000000 100.000000 100.000000 100.000000 100.000000 100.000000 100.000000 100.000000 100.000000 100.000000 100.000000 100.000000 100.000000 100.000000 100.000000 100.000000 100.000000 100.000000 100.000000 100.000000 100.000000 100.000000 100.000000 100.000000 100.000000 100.000000 100.000000 100.000000 100.000000 100.000000 100.000000 100.000000 100.000000 100.000000 100.000000 100.000000 100.000000 100.000000 100.000000 100.000000 100.000000 100.000000 100.000000 100.000000 100.000000 100.000000 100.000000 100.000000 100.000000 100.000000 100.000000 100.000000 100.000000 100.000000 100.000000 100.000000 100.000000 100.000000 100.000000 100.000000 100.000000 100.000000 100.000000 100.000000 100.000000 100.000000 100.000000 100.000000 100.000000 100.000000 100.000000 100.000000 100.000000 100.000000 100.000000 100.000000 100.000000 100.000000 100.000000 100.000000 100.000000 100.000000 100.000000 100.000000 100.000000 100.000000 100.000000 100.000000 100.000000 100.000000 100.000000 100.000000 100.000000 100.000000 100.000000 100.000000 100.000000 100.000000 100.000000 100.000000 100.000000 100.000000 100.000000 100.000000 100.000000 100.000000 100.000000 100.000000 100.000000 100.000000 100.000000 100.000000 100.000000 100.000000 100.000000 100.000000 100.000000 100.000000 100.000000 100.000000 100.000000 100.000000 100.000000 100.000000 100.000000 100.000000 100.000000 100.000000 100.000000 100.000000 100.000000 100.000000 100.000000 100.000000 100.000000 100.000000 100.000000 100.000000 100.000000 100.000000 100.000000 100.000000 100.000000 100.000000 100.000000 100.000000 100.000000 100.000000 100.000000 100.000000 100.000000 100.000000 100.000000 100.000000 100.000000 100.000000 100.000000 100.000000 100.000000 100.000000 100.000000 100.000000 100.000000 100.000000 100.000000 100.000000 100.000000 100.000000 100.000000 100.000000 100.000000 100.000000 100.000000 100.000000 100.000000 100.000000 100.000000 100.000000 100.000000 100.000000 100.000000 100.000000 100.000000 100.000000 100.000000 100.000000 100.000000 100.000000 100.000000 100.000000 100.000000 100.000000 100.000000 100.000000 100.000000 100.000000 100.000000 100.000000 100.000000 100.000000 100.000000 100.000000 100.000000 100.000000 100.000000 100.000000 100.000000 100.000000 100.000000 100.000000 100.000000 100.000000 100.000000 100.000000 100.000000 100.000000 100.000000 100.000000 100.000000 100.000000 100.000000 100.000000 100.000000 100.000000 100.000000 100.000000 100.000000 100.000000 100.000000 100.000000 100.000000 100.000000 100.000000 100.000000 100.000000 100.000000 100.000000 100.000000 100.000000 100.000000 100.000000 100.000000 100.000000 100.000000 100.000000 100.000000 100.000000 100.000000 100.000000 100.000000 100.000000 100.000000 100.000000 100.000000 100.000000 100.000000 100.000000 100.000000 100.000000 100.000000 100.000000 100.000000 100.000000 100.000000 100.000000 100.000000 100.000000 100.000000 100.000000 100.000000 100.000000 100.000000 100.000000 100.000000 100.000000 100.000000 100.000000 100.000000 100.000000 100.000000 100.000000 100.000000 100.000000 100.000000 100.000000 100.000000 100.000000 100.000000 100.000000 100.000000 100.000000 100.000000 100.000000 100.000000 100.000000 100.000000 100.000000 100.000000 100.000000 100.000000 100.000000 100.000000 100.000000 100.000000 100.000000 100.000000 100.000000 100.000000 100.000000 100.000000 100.000000 100.000000 100.000000 100.000000 100.000000 100.000000 100.000000 100.000000 100.000000 100.000000 100.000000 100.000000 100.000000 100.000000 100.000000 100.000000 100.000000 100.000000 100.000000 100.000000 100.000000 100.000000 100.000000 100.000000 100.000000 100.000000 100.000000 100.000000 100.000000 100.000000 100.000000 100.000000 100.000000 100.000000 100.000000 100.000000 100.000000 100.000000 100.000000 100.000000 100.000000 100.000000 100.000000 100.000000 100.000000 100.000000 100.000000 100.000000 100.000000 100.000000 100.000000 100.000000 100.000000 100.000000 100.000000 100.000000 100.000000 100.000000 100.000000 100.000000 100.000000 100.000000 100.000000 100.000000 100.000000 100.000000 100.000000 100.000000 100.000000 100.000000 100.000000 100.000000 100.000000 100.000000 100.000000 100.000000 100.000000 100.000000 100.000000 100.000000 100.000000 100.000000 100.000000 100.000000 100.000000 100.000000 100.000000 100.000000 100.000000 100.000000 100.000000 100.000000 100.000000 100.000000 100.000000 100.000000 100.000000 100.000000 100.000000 100.000000 100.000000 100.000000 100.000000 100.000000 100.000000 100.000000 100.000000 100.000000 100.000000 100.000000 100.000000 100.000000 100.000000 100.000000 100.000000 100.000000 100.000000 100.000000 100.000000 100.000000 100.000000 100.000000 100.000000 100.000000 100.000000 100.000000 100.000000 100.000000 100.000000 100.000000 100.000000 100.000000 100.000000 100.000000 100.000000 100.000000 100.000000 100.000000 100.000000 100.000000 100.000000 100.000000 100.000000 100.000000 100.000000 100.000000 100.000000 100.000000 100.000000 100.000000 100.000000 100.000000 100.000000 100.000000 100.000000 100.000000 100.000000 100.000000 100.000000 100.000000 100.000000 100.000000 100.000000 100.000000 100.000000 100.000000 100.000000 100.000000 100.000000 100.000000 100.000000 100.000000 100.000000 100.000000 100.000000 100.000000 100.000000 100.000000 100.000000 100.000000 100.000000 100.000000 100.000000 100.000000 100.000000 100.000000 100.000000 100.000000 100.000000 100.000000 100.000000 100.000000 100.000000 100.000000 100.000000 100.000000 100.000000 100.000000 100.000000 100.000000 100.000000 100.000000 100.000000 100.000000 100.000000 100.000000 100.000000 100.000000 100.000000 100.000000 100.000000 100.000000 100.000000 100.000000 100.000000 100.000000 100.000000 100.000000 100.000000 100.000000 100.000000 100.000000 100.000000 100.000000 100.000000 100.000000 100.000000 100.000000 100.000000 100.000000 100.000000 100.000000 100.000000 100.000000 100.000000 100.000000 100.000000 100.000000 100.000000 100.000000 100.000000 100.000000 100.000000 100.000000 100.000000 100.000000 100.000000 100.000000 100.000000 100.000000 100.000000 100.000000 100.000000 100.000000 100.000000 100.000000 100.000000 100.000000 100.000000 100.000000 100.000000 100.000000 100.000000 100.000000 100.000000 100.000000 100.000000 100.000000 100.000000 100.000000 100.000000 100.000000 100.000000 100.000000 100.000000 100.000000 100.000000 100.000000 100.000000 100.000000 100.000000 100.000000 100.000000 100.000000 100.000000 100.000000 100.000000 100.000000 100.000000 100.000000 100.000000 100.000000 100.000000 100.000000 100.000000 100.000000 100.000000 100.000000 100.000000 100.000000 100.000000 100.000000 100.000000 100.000000 100.000000 100.000000 100.000000 100.000000 100.000000 100.000000 100.000000 100.000000 100.000000 100.000000 100.000000 100.000000 100.000000 100.000000 100.000000 100.000000 100.000000 100.000000 100.000000 100.000000 100.000000 100.000000 100.000000 100.000000 100.000000 100.000000 100.000000 100.000000 100.000000 100.000000 100.000000 100.000000 100.000000 100.000000 100.000000 100.000000 100.000000 100.000000 100.000000 100.000000 100.000000 100.000000 100.000000 100.000000 100.000000 100.000000 100.000000 100.000000 100.000000 100.000000 100.000000 100.000000 100.000000 100.000000 100.000000 100.000000 100.000000 100.000000 100.000000 100.000000 100.000000 100.000000 100.000000 100.000000 100.000000 100.000000 100.000000 100.000000 100.000000 100.000000 100.000000 100.000000 100.000000 100.000000 100.000000 100.000000 100.000000 100.000000 100.000000 100.000000 100.000000 100.000000 100.000000 100.000000 100.000000 100.000000 100.000000 100.000000 100.000000 100.000000 100.000000 100.000000 100.000000 100.000000 100.000000 100.000000 100.000000 100.000000 100.000000 100.000000 100.000000 100.000000 100.000000 100.000000 100.000000 100.000000 100.000000 100.000000 100.000000 100.000000 100.000000 100.000000 100.000000 100.000000 100.000000 100.000000 100.000000 100.000000 100.000000 100.000000 100.000000 100.000000 100.000000 100.000000 100.000000 100.000000 100.000000 100.000000 100.000000 100.000000 100.000000 100.000000 100.000000 100.000000 100.000000 100.000000 100.000000 100.000000 100.000000 100.000000 100.000000 100.000000 100.000000 100.000000 100.000000 100.000000 100.000000 100.000000 100.000000 100.000000 100.000000 100.000000 100.000000 100.000000 100.000000 100.000000 100.000000 100.000000 100.000000 100.000000 100.000000 100.000000 100.000000 100.000000 100.000000 100.000000 100.000000 100.000000 100.000000 100.000000 100.000000 100.000000 100.000000 100.000000 100.000000 100.000000 100.000000 100.000000 100.000000 100.000000 100.000000 100.000000 100.000000 100.000000 100.000000 100.000000 100.000000 100.000000 100.000000 100.000000 100.000000 100.000000 100.000000 100.000000 100.000000 100.000000 100.000000 100.000000 100.000000 100.000000 100.000000 100.000000 100.000000 100.000000 100.000000 100.000000 100.000000 100.000000 100.000000 100.000000 100.000000 100.000000 100.000000 100.000000 100.000000 100.000000 100.000000 100.000000 100.000000 100.000000 100.000000 100.000000 100.000000 100.000000 100.000000 100.000000 100.000000 100.000000 100.000000 100.000000 100.000000 100.000000 100.000000 100.000000 100.000000 100.000000 100.000000 100.000000 100.000000 100.000000 100.000000 100.000000 100.000000 100.000000 100.000000 100.000000 100.000000 100.000000 100.000000 100.000000 100.000000 100.000000 100.000000 100.000000 100.000000 100.000000 100.000000 100.000000 100.000000 100.000000 100.000000 100.000000 100.000000 100.000000 100.000000 100.000000 100.000000 100.000000 100.000000 100.000000 100.000000 100.000000 100.000000 100.000000 100.000000 100.000000 100.000000 100.000000 100.000000 100.000000 100.000000 100.000000 100.000000 100.000000 100.000000 100.000000 100.000000 100.000000 100.000000 100.000000 100.000000 100.000000 100.000000 100.000000 100.000000 100.000000 100.000000 100.000000 100.000000 100.000000 100.000000 100.000000 100.000000 100.000000 100.000000 100.000000 100.000000 100.000000 100.000000 100.000000 100.000000 100.000000 100.000000 100.000000 100.000000 100.000000 100.000000 100.000000 100.000000 100.000000 100.000000 100.000000 100.000000 100.000000 100.000000 100.000000 100.000000 100.000000 100.000000 100.000000 100.000000 100.000000 100.000000 100.000000 100.000000 100.000000 100.000000 100.000000 100.000000 100.000000 100.000000 100.000000 100.000000 100.000000 100.000000 100.000000 100.000000 100.000000 100.000000 100.000000 100.000000 100.000000 100.000000 100.000000 100.000000 100.000000 100.000000 100.000000 100.000000 100.000000 100.000000 100.000000 100.000000 100.000000 100.000000 100.000000 100.000000 100.000000 100.000000 100.000000 100.000000 100.000000 100.000000 100.000000 100.000000 100.000000 100.000000 100.000000 100.000000 100.000000 100.000000 100.000000 100.000000 100.000000 100.000000 100.000000 100.000000 100.000000 100.000000 100.000000 100.000000 100.000000 100.000000 100.000000 100.000000 100.000000 100.000000 100.000000 100.000000 100.000000 100.000000 100.000000 100.000000 100.000000 100.000000 100.000000 100.000000 100.000000 100.000000 100.000000 100.000000 100.000000 100.000000 100.000000 100.000000 100.000000 100.000000 100.000000 100.000000 100.000000 100.000000 100.000000 100.000000 100.000000 100.000000 100.000000 100.000000 100.000000 100.000000 100.000000 100.000000 100.000000 100.000000 100.000000 100.000000 100.000000 100.000000 100.000000 100.000000 100.000000 100.000000 100.000000 100.000000 100.000000 100.000000 100.000000 100.000000 100.000000 100.000000 100.000000 100.000000 100.000000 100.000000 100.000000 100.000000 100.000000 100.000000 100.000000 100.000000 100.000000 100.000000 100.000000 100.000000 100.000000 100.000000 100.000000 100.000000 100.000000 100.000000 100.000000 100.000000 100.000000 100.000000 100.000000 100.000000 100.000000 100.000000 100.000000 100.000000 100.000000 100.000000 100.000000 100.000000 100.000000 100.000000 100.000000 100.000000 100.000000 100.000000 100.000000 100.000000 100.000000 100.000000 100.000000 100.000000 100.000000 100.000000 100.000000 100.000000 100.000000 100.000000 100.000000 100.000000 100.000000 100.000000 100.000000 100.000000 100.000000 100.000000 100.000000 100.000000 100.000000 100.000000 100.000000 100.000000 100.000000 100.000000 100.000000 100.000000 100.000000 100.000000 100.000000 100.000000 100.000000 100.000000 100.000000 100.000000 100.000000 100.000000 100.000000 100.000000 100.000000 100.000000 100.000000 100.000000 100.000000 100.000000 100.000000 100.000000 100.000000 100.000000 100.000000 100.000000 100.000000 100.000000 100.000000 100.000000 100.000000 100.000000 100.000000 100.000000 100.000000 100.000000 100.000000 100.000000 100.000000 100.000000 100.000000 100.000000 100.000000 100.000000 100.000000 100.000000 100.000000 100.000000 100.000000 100.000000 100.000000 100.000000 100.000000 100.000000 100.000000 100.000000 100.000000 100.000000 100.000000 100.000000 100.000000 100.000000 100.000000 100.000000 100.000000 100.000000 100.000000 100.000000 100.000000 100.000000 100.000000 100.000000 100.000000 100.000000 100.000000 100.000000 100.000000 100.000000 100.000000 100.000000 100.000000 100.000000 100.000000 100.000000 100.000000 100.000000 100.000000 100.000000 100.000000 100.000000 100.000000 100.000000 100.000000 100.000000 100.000000 100.000000 100.000000 100.000000 100.000000 100.000000 100.000000 100.000000 100.000000 100.000000 100.000000 100.000000 100.000000 100.000000 100.000000 100.000000 100.000000 100.000000 100.000000 100.000000 100.000000 100.000000 100.000000 100.000000 100.000000 100.000000 100.000000 100.000000 100.000000 100.000000 100.000000 100.000000 100.000000 100.000000 100.000000 100.000000 100.000000 100.000000 100.000000 100.000000 100.000000 100.000000 100.000000 100.00000