# vtk DataFile Version 3.0
Output from R3t
ASCII
DATASET UNSTRUCTURED_GRID
POINTS       4606 double
     -0.12500000E+03      0.15000000E+03      0.00000000E+00
      0.17500000E+03      0.15000000E+03      0.00000000E+00
      0.17500000E+03     -0.15000000E+03      0.00000000E+00
     -0.12500000E+03     -0.15000000E+03      0.00000000E+00
     -0.25000000E+02      0.25000000E+02      0.00000000E+00
      0.75000000E+02      0.25000000E+02      0.00000000E+00
      0.75000000E+02     -0.25000000E+02      0.00000000E+00
     -0.25000000E+02     -0.25000000E+02      0.00000000E+00
      0.00000000E+00      0.00000000E+00      0.00000000E+00
      0.20000000E+01      0.00000000E+00      0.00000000E+00
      0.40000000E+01      0.00000000E+00      0.00000000E+00
      0.60000000E+01      0.00000000E+00      0.00000000E+00
      0.80000000E+01      0.00000000E+00      0.00000000E+00
      0.10000000E+02      0.00000000E+00      0.00000000E+00
      0.12000000E+02      0.00000000E+00      0.00000000E+00
      0.14000000E+02      0.00000000E+00      0.00000000E+00
      0.16000000E+02      0.00000000E+00      0.00000000E+00
      0.18000000E+02      0.00000000E+00      0.00000000E+00
      0.20000000E+02      0.00000000E+00      0.00000000E+00
      0.22000000E+02      0.00000000E+00      0.00000000E+00
      0.24000000E+02      0.00000000E+00      0.00000000E+00
      0.26000000E+02      0.00000000E+00      0.00000000E+00
      0.28000000E+02      0.00000000E+00      0.00000000E+00
      0.30000000E+02      0.00000000E+00      0.00000000E+00
      0.32000000E+02      0.00000000E+00      0.00000000E+00
      0.34000000E+02      0.00000000E+00      0.00000000E+00
      0.36000000E+02      0.00000000E+00      0.00000000E+00
      0.38000000E+02      0.00000000E+00      0.00000000E+00
      0.40000000E+02      0.00000000E+00      0.00000000E+00
      0.42000000E+02      0.00000000E+00      0.00000000E+00
      0.44000000E+02      0.00000000E+00      0.00000000E+00
      0.46000000E+02      0.00000000E+00      0.00000000E+00
      0.48000000E+02      0.00000000E+00      0.00000000E+00
      0.00000000E+00      0.50000000E+01      0.00000000E+00
      0.20000000E+01      0.50000000E+01      0.00000000E+00
      0.40000000E+01      0.50000000E+01      0.00000000E+00
      0.60000000E+01      0.50000000E+01      0.00000000E+00
      0.80000000E+01      0.50000000E+01      0.00000000E+00
      0.10000000E+02      0.50000000E+01      0.00000000E+00
      0.12000000E+02      0.50000000E+01      0.00000000E+00
      0.14000000E+02      0.50000000E+01      0.00000000E+00
      0.16000000E+02      0.50000000E+01      0.00000000E+00
      0.18000000E+02      0.50000000E+01      0.00000000E+00
      0.20000000E+02      0.50000000E+01      0.00000000E+00
      0.22000000E+02      0.50000000E+01      0.00000000E+00
      0.24000000E+02      0.50000000E+01      0.00000000E+00
      0.26000000E+02      0.50000000E+01      0.00000000E+00
      0.28000000E+02      0.50000000E+01      0.00000000E+00
      0.30000000E+02      0.50000000E+01      0.00000000E+00
      0.32000000E+02      0.50000000E+01      0.00000000E+00
      0.34000000E+02      0.50000000E+01      0.00000000E+00
      0.36000000E+02      0.50000000E+01      0.00000000E+00
      0.38000000E+02      0.50000000E+01      0.00000000E+00
      0.40000000E+02      0.50000000E+01      0.00000000E+00
      0.42000000E+02      0.50000000E+01      0.00000000E+00
      0.44000000E+02      0.50000000E+01      0.00000000E+00
      0.46000000E+02      0.50000000E+01      0.00000000E+00
      0.48000000E+02      0.50000000E+01      0.00000000E+00
      0.00000000E+00     -0.50000000E+01      0.00000000E+00
      0.20000000E+01     -0.50000000E+01      0.00000000E+00
      0.40000000E+01     -0.50000000E+01      0.00000000E+00
      0.60000000E+01     -0.50000000E+01      0.00000000E+00
      0.80000000E+01     -0.50000000E+01      0.00000000E+00
      0.10000000E+02     -0.50000000E+01      0.00000000E+00
      0.12000000E+02     -0.50000000E+01      0.00000000E+00
      0.14000000E+02     -0.50000000E+01      0.00000000E+00
      0.16000000E+02     -0.50000000E+01      0.00000000E+00
      0.18000000E+02     -0.50000000E+01      0.00000000E+00
      0.20000000E+02     -0.50000000E+01      0.00000000E+00
      0.22000000E+02     -0.50000000E+01      0.00000000E+00
      0.24000000E+02     -0.50000000E+01      0.00000000E+00
      0.26000000E+02     -0.50000000E+01      0.00000000E+00
      0.28000000E+02     -0.50000000E+01      0.00000000E+00
      0.30000000E+02     -0.50000000E+01      0.00000000E+00
      0.32000000E+02     -0.50000000E+01      0.00000000E+00
      0.34000000E+02     -0.50000000E+01      0.00000000E+00
      0.36000000E+02     -0.50000000E+01      0.00000000E+00
      0.38000000E+02     -0.50000000E+01      0.00000000E+00
      0.40000000E+02     -0.50000000E+01      0.00000000E+00
      0.42000000E+02     -0.50000000E+01      0.00000000E+00
      0.44000000E+02     -0.50000000E+01      0.00000000E+00
      0.46000000E+02     -0.50000000E+01      0.00000000E+00
      0.48000000E+02     -0.50000000E+01      0.00000000E+00
     -0.25000000E+02     -0.25000000E+02     -0.20000000E+02
     -0.25000000E+02      0.25000000E+02     -0.20000000E+02
      0.75000000E+02      0.25000000E+02     -0.20000000E+02
      0.75000000E+02     -0.25000000E+02     -0.20000000E+02
     -0.12500000E+03     -0.11666700E+03      0.00000000E+00
     -0.12500000E+03     -0.83333000E+02      0.00000000E+00
     -0.12500000E+03     -0.50000000E+02      0.00000000E+00
     -0.12500000E+03     -0.16667000E+02      0.00000000E+00
     -0.12500000E+03      0.16667000E+02      0.00000000E+00
     -0.12500000E+03      0.50000000E+02      0.00000000E+00
     -0.12500000E+03      0.83333000E+02      0.00000000E+00
     -0.12500000E+03      0.11666700E+03      0.00000000E+00
     -0.91667000E+02      0.15000000E+03      0.00000000E+00
     -0.58333000E+02      0.15000000E+03      0.00000000E+00
     -0.25000000E+02      0.15000000E+03      0.00000000E+00
      0.83330000E+01      0.15000000E+03      0.00000000E+00
      0.41667000E+02      0.15000000E+03      0.00000000E+00
      0.75000000E+02      0.15000000E+03      0.00000000E+00
      0.10833300E+03      0.15000000E+03      0.00000000E+00
      0.14166700E+03      0.15000000E+03      0.00000000E+00
      0.17500000E+03      0.11666700E+03      0.00000000E+00
      0.17500000E+03      0.83333000E+02      0.00000000E+00
      0.17500000E+03      0.50000000E+02      0.00000000E+00
      0.17500000E+03      0.16667000E+02      0.00000000E+00
      0.17500000E+03     -0.16667000E+02      0.00000000E+00
      0.17500000E+03     -0.50000000E+02      0.00000000E+00
      0.17500000E+03     -0.83333000E+02      0.00000000E+00
      0.17500000E+03     -0.11666700E+03      0.00000000E+00
      0.14166700E+03     -0.15000000E+03      0.00000000E+00
      0.10833300E+03     -0.15000000E+03      0.00000000E+00
      0.75000000E+02     -0.15000000E+03      0.00000000E+00
      0.41667000E+02     -0.15000000E+03      0.00000000E+00
      0.83330000E+01     -0.15000000E+03      0.00000000E+00
     -0.25000000E+02     -0.15000000E+03      0.00000000E+00
     -0.58333000E+02     -0.15000000E+03      0.00000000E+00
     -0.91667000E+02     -0.15000000E+03      0.00000000E+00
     -0.25000000E+02     -0.19444000E+02      0.00000000E+00
     -0.25000000E+02     -0.13889000E+02      0.00000000E+00
     -0.25000000E+02     -0.83330000E+01      0.00000000E+00
     -0.25000000E+02     -0.27780000E+01      0.00000000E+00
     -0.25000000E+02      0.27780000E+01      0.00000000E+00
     -0.25000000E+02      0.83330000E+01      0.00000000E+00
     -0.25000000E+02      0.13889000E+02      0.00000000E+00
     -0.25000000E+02      0.19444000E+02      0.00000000E+00
     -0.19737000E+02      0.25000000E+02      0.00000000E+00
     -0.14474000E+02      0.25000000E+02      0.00000000E+00
     -0.92110000E+01      0.25000000E+02      0.00000000E+00
     -0.39470000E+01      0.25000000E+02      0.00000000E+00
      0.13160000E+01      0.25000000E+02      0.00000000E+00
      0.65790000E+01      0.25000000E+02      0.00000000E+00
      0.11842000E+02      0.25000000E+02      0.00000000E+00
      0.17105000E+02      0.25000000E+02      0.00000000E+00
      0.22368000E+02      0.25000000E+02      0.00000000E+00
      0.27632000E+02      0.25000000E+02      0.00000000E+00
      0.32895000E+02      0.25000000E+02      0.00000000E+00
      0.38158000E+02      0.25000000E+02      0.00000000E+00
      0.43421000E+02      0.25000000E+02      0.00000000E+00
      0.48684000E+02      0.25000000E+02      0.00000000E+00
      0.53947000E+02      0.25000000E+02      0.00000000E+00
      0.59211000E+02      0.25000000E+02      0.00000000E+00
      0.64474000E+02      0.25000000E+02      0.00000000E+00
      0.69737000E+02      0.25000000E+02      0.00000000E+00
      0.75000000E+02      0.19444000E+02      0.00000000E+00
      0.75000000E+02      0.13889000E+02      0.00000000E+00
      0.75000000E+02      0.83330000E+01      0.00000000E+00
      0.75000000E+02      0.27780000E+01      0.00000000E+00
      0.75000000E+02     -0.27780000E+01      0.00000000E+00
      0.75000000E+02     -0.83330000E+01      0.00000000E+00
      0.75000000E+02     -0.13889000E+02      0.00000000E+00
      0.75000000E+02     -0.19444000E+02      0.00000000E+00
      0.69737000E+02     -0.25000000E+02      0.00000000E+00
      0.64474000E+02     -0.25000000E+02      0.00000000E+00
      0.59211000E+02     -0.25000000E+02      0.00000000E+00
      0.53947000E+02     -0.25000000E+02      0.00000000E+00
      0.48684000E+02     -0.25000000E+02      0.00000000E+00
      0.43421000E+02     -0.25000000E+02      0.00000000E+00
[...]
POINT_DATA      4606
CELL_DATA     21201
SCALARS Resistivity double 1
LOOKUP_TABLE default
           100.52094           100.60899            99.71030           100.57569           100.39430           100.65647            99.74139           100.20267            99.79226           100.10402           100.15161           100.73861            99.88544           100.58780           100.62073           100.27096           100.10780           100.76255           100.24930           100.57084           100.47254           100.21938           100.74859           100.09986           100.28738            99.81107            99.82174           100.63785           100.11143           100.30458           100.81296           100.68484           100.29801           100.12166           100.04612           100.12785            99.73895            99.81852           100.13903           100.37670           100.12137           100.24686           100.75750           100.26810           100.15083            99.87914           100.72364           100.02621           100.75213            99.77178            99.99741           100.64221           100.62999           100.80405           100.56103           100.72106           100.74305           100.27101           100.61131            99.81147           100.81067           100.00805           100.46877            99.93172           100.60109            99.78968           100.38279           100.37898            99.89690           100.38752           100.31826           100.12337           100.67988           100.48426           100.51835           100.40154           100.10349           100.47510           100.37970           100.51716           100.00798           100.51330           100.32505           100.14181           100.54727           100.74611           100.69505            99.92674           100.37749           100.51414           100.40757            99.49543           100.73263           100.25124           100.77681           100.30436           100.58923           100.21421            99.63079            99.97042           100.21082           100.24281           100.21260           100.76226           100.54854           100.15783           100.55368           100.49249           100.72155           100.19649            99.73867           100.83728           100.26979           100.13652           100.57777           100.62587           100.71111           100.27655            99.78360           100.07919           100.23283           100.51937           100.75706           100.62582           100.31380            99.79627            99.78627           100.82165           100.82250           100.30349           100.23403           100.72319           100.64690           100.65073           100.06510           100.87458            99.70068           100.09992           100.51026           100.56685           100.43163           100.06051           100.73862           100.31289           100.62140           100.49805           100.54433           100.40008           100.59419           100.32295           100.29863           100.65211           100.25090            99.73065           100.20800            99.95905           100.52563           100.56177           100.79684            99.93151           100.06488            99.60709           100.06223           100.46601           100.05832            99.59679           100.12441           100.22849           100.73913           100.30331            99.89585           100.14963           100.21008            99.73993           100.33169           100.20486           100.59159           100.57335           100.72188           100.25400           100.36202           100.41751           100.15417           100.38736            99.99492           100.12091            99.76424           100.12563           100.49610           100.44290           100.30786           100.54107           100.71946           100.66507           100.56595            99.56311            99.65723            99.55930           100.55541           100.23527           100.25642           100.42705           100.48760           100.69836           100.25248           100.45985           100.44095           100.49198           100.82146           100.47203           100.68903            99.72284           100.17711           100.34518           100.61135           100.60599           100.32312           100.17719           100.58207           100.37939           100.52490           100.64938           100.24158           100.21118           100.65423            99.63834           100.40917           100.55460           100.54662           100.43409            99.70838           100.49492            99.70544            99.74659           100.03096           100.46788           100.29397            99.90735            99.76557           100.32872           100.79380           100.65160           100.49937           100.46375           100.15612           100.61440           100.66335           100.49962           100.59646           100.20263           100.37764           100.53796           100.64694            99.86540           100.49115           100.15157           100.37972           100.36338           100.02827           100.39008           100.59475           100.10829           100.37210           100.39800           100.21367           100.66299           100.65822            99.89849            99.89756           100.04570           100.21670           100.13236           100.52613            99.57285           100.13052           100.56154           100.21649           100.54123            99.87897           100.64905           100.35327           100.01555           100.54417           100.40582            99.89403            99.85746           100.60712           100.72162           100.62528           100.84722            99.82904           100.71392           100.26191           100.63229           100.06462           100.06130           100.29398           100.00576           100.58835           100.08606           100.38964           100.15184           100.44866           100.31613           100.47419           100.41673           100.33959           100.07125           100.74942            99.86093           100.24498           100.67606           100.84124           100.55370           100.78034            99.82815            99.88815           100.18298           100.56758            99.99332           100.12381           100.74808           100.66328           100.59699           100.51775           100.57664           100.48833           100.60296           100.33681            99.98246            99.80292           100.79602            99.95879           100.24565           100.10033           100.61807           100.25450           100.56984            99.88990           100.45823           100.22621            99.91676           100.22532           100.81196            99.76272            99.72910           100.13514           100.51111           100.29738           100.24930           100.44328           100.56386           100.17820           100.90976           100.58301           100.63516            99.82121           100.55247            99.72711           100.40951           100.19859            99.98117            99.70877           100.81908           100.35654           100.16022           100.91297           100.17644           100.10775           100.54764           100.25598           100.36092           100.81719           100.39310            99.84978           100.57280           100.36812           100.44554            99.89706           100.80151           100.57686            99.81225           100.32457           100.46053           100.28461           100.56595           100.86745           100.57599           100.40841            99.85479           100.11688           100.05341           100.80099           100.00750            99.95010           100.05117           100.57085           100.73723           100.37580           100.52470           100.54933           100.45829           100.18472           100.60913           100.56673           100.77817           100.66469           100.14963           100.03544           100.74591           100.24799           100.79734           100.85104            99.78235           100.42185           100.29160           100.85907           100.55661           100.52385           100.40881           100.11958            99.85761           100.51393           100.48499            99.78313           100.16291            99.52714           100.90561           100.45307           100.56673           100.44833            99.58050           100.68255           100.54230            99.75159           100.29496           100.27375           100.52103           100.74873           100.40697           100.69566           100.56440           100.10121           100.41943           100.87989           100.48951           100.43160            99.67166           100.25079           100.39056           100.29730           100.56682           100.05059            99.76123           100.14077           100.40879           100.71888           100.55684           100.04548           100.39025           100.39285           100.44954           100.50520           100.59655            99.88899           100.39950           100.34661           100.17093           100.28315           100.64738           100.44281            99.91118           100.00438           100.48110           100.26021           100.31034           100.44532           100.45644           100.00988           100.09501           100.59612           100.50959           100.52670           100.61058           100.22871           100.08532           100.16144           100.02400           100.43821           100.50185            99.92657           100.68369           100.61167            99.90438           100.83571           100.31851           100.13031           100.71961           100.36125           100.42731           100.56054           100.11844           100.52764           100.36710           100.52618           100.68545           100.51638           100.54714           100.86914           100.40408           100.29096           100.28150           100.48901           100.25600            99.92574           100.53485           100.36317           100.06270           100.51041            99.97355           100.52149           100.59387           100.50609           100.44452           100.30893           100.91086           100.63485           100.46364            99.77838            99.83086           100.44174           100.77785           100.18849           100.31379           100.56298           100.07143           100.45406           100.07879           100.68285           100.69701            99.97140           100.73543            99.84335            99.65896           100.49646           100.59063           100.39861           100.31832           100.82301           100.56746           100.81269            99.96616           100.54647           100.44730           100.08031           100.22097           100.63193           100.79625           100.27046           100.42302            99.94938           100.49181            99.90668           100.20354           100.61678           100.37400           100.47215           100.26044           100.73830           100.25615           100.33666            99.62089            99.95183           100.10979            99.87180           100.55838           100.16817            99.86267           100.52363           100.73526           100.26220           100.23001           100.94041           100.22038           100.39087           100.46507           100.53439           100.49607           100.22561           100.63041           100.51580           100.27644           100.72484           100.79821            99.99520            99.86259           100.45327           100.58322           100.29724            99.66066           100.35607           100.24161           100.32977           100.42172           100.68666           100.56039           100.19785           100.61591           100.64067           100.67619           100.31566           100.82548            99.81980           100.29307            99.88070           100.68839           100.13240           100.49950           100.43245           100.59272            99.90094           100.70506           100.95056            99.91149           100.81472           100.38132           100.58964           100.81645           100.34421           100.50375           100.26056            99.94152           100.64830           100.62492           100.27762           100.46701           100.65445            99.94754            99.77703           100.05761            99.93172           100.18239           100.74913           100.35633           100.52845           100.30670           100.18704           100.35713           100.59548           100.91587           100.07743           100.23903            99.97397           100.59091           100.50565           100.29853           100.26166           100.25268            99.76814           100.41021           100.19151           100.26882           100.63650           100.49980           100.61974           100.52913            99.80815            99.87339           100.07347           100.13722           100.47736           100.57146           100.08431           100.23497           100.16925           100.49354           100.55665           100.17567           100.17070           100.59012           100.54438           100.76674           100.39874           100.10105           100.73679           100.47374           100.19159           100.11386            99.70648           100.47328           100.68721            99.81446           100.44215           100.35769           100.75399            99.87504           100.55558           100.25296           100.79323           100.57358           100.16803           100.30851           100.43074           100.40238           100.56071           100.26604           100.26378           100.18295           100.86608           100.47168           100.84156           100.67084           100.23596           100.55376           100.33224           100.64581           100.16884           100.26494           100.30376           100.50240           100.78370           100.02841           100.86697           100.06750           100.29836           100.02417           100.22203           100.68513           100.93463           100.57350           100.16465           100.25468            99.78637           100.34204           100.69008           100.59240           100.56476           100.23978           100.59031           100.56007           100.61477           100.14182           100.27221           100.53313           100.26985           100.27257           100.36952           100.44030           100.38485           100.44733           100.27759           100.61984           100.70692           100.14538           100.50171           100.23281           100.48360           100.69669           100.26834           100.60832           100.05123           100.39302           100.66112           100.83864           100.16097            99.91825           100.20307            99.82371           100.47502           100.85289           100.68492           100.42126           100.29720           100.45997           100.55350           100.73932           100.26110           100.59680           100.47413           100.59078            99.90118           100.57906           100.13154           100.57022           100.56061            99.99931           100.50683           100.78374           100.51580           100.46960            99.47533           100.09687           100.12993           100.62117           100.26903           100.54006           100.62738            99.67695           100.30498           100.19164           100.76898           100.53480           100.19819           100.55212           100.34402           100.56126           100.33343           100.07882           100.30148           100.23583            99.88674           100.28511           100.54534           100.33116           100.85553           100.43367           100.02038           100.32352           100.31918           100.54099           100.85608           100.84368           100.09766           100.39343            99.99101           100.34568           100.21660            99.88717           100.29744           100.40289           100.44861           100.05907           100.04138           100.21529           100.58236           100.58325           100.26055           100.38099           100.61262           100.29636           100.66570           100.32565           100.29615           100.37653           100.38746           100.24966           100.14432            99.75012           100.27418           100.49179            99.97581           100.34748           100.16946            99.98982           100.73634           100.61315            99.98215            99.78940           100.30660           100.56835           100.29845           100.02563           100.71263           100.27402           100.34961           100.55221           100.37712           100.25539           100.37799           100.39479           100.59333           100.49528            99.87772           100.49197           100.21214           100.82850           100.56601           100.44775           100.80315           100.35073           100.82569           100.83606           100.57391           100.29050           100.55219            99.76475           100.72338           100.82580           100.88023           100.43057           100.58608           100.29860           100.55515           100.28506           100.71995           100.83558           100.80104            99.73633           100.47005           100.29540           100.56510            99.92828           100.13162           100.56419           100.62536           100.27768           100.67838           100.59550           100.38457           100.20681           100.35031           100.71166           100.18189           100.25246           100.47010           100.08124           100.64688           100.07662           100.17436           100.52475           100.28439           100.52488            99.86440           100.32741           100.23977           100.47334           100.46948           100.59302           100.24752           100.13544           100.51269           100.83069           100.18219           100.51001           100.55818           100.27462            99.73939           100.23053           100.50958           100.70178           100.45997           100.83770            99.67510            99.89563           100.21455           100.80550           100.21331           100.20955           100.56215           100.44843           100.31574           100.63065           100.35089           100.17901           100.37399           100.21038            99.65746           100.43174           100.12325            99.83626           100.59770            99.65526           100.21258           100.43339           100.21561           100.15529           100.02216           100.61048           100.22984           100.66914            99.74660           100.30224           100.33012            99.83177           100.49584           100.29169           100.66404           100.42200           100.49681           100.13395           100.66921           100.16471            99.89520           100.22892           100.18279            99.87128           100.20649           100.51397           100.31165            99.51994            99.92157           100.56683           100.19374           100.20838           100.36625     