# vtk DataFile Version 3.0
3D_R3t_mesh
ASCII
DATASET UNSTRUCTURED_GRID
POINTS 80515 double
57.600000	7.000000	0.000000
57.600000	-7.000000	0.000000
-9.600000	-7.000000	0.000000
-9.600000	7.000000	0.000000
57.600000	7.000000	32.690000
57.600000	-7.000000	32.690000
-9.600000	-7.000000	32.690000
-9.600000	7.000000	32.690000
2087.600000	2037.000000	0.000000
2087.600000	-2037.000000	0.000000
-2039.600000	-2037.000000	0.000000
-2039.600000	2037.000000	0.000000
2087.600000	2037.000000	-3236.020000
2087.600000	-2037.000000	-3236.020000
-2039.600000	-2037.000000	-3236.020000
-2039.600000	2037.000000	-3236.020000
0.000000	-5.000000	0.000000
2.000000	-5.000000	0.000000
4.000000	-5.000000	0.000000
6.000000	-5.000000	0.000000
8.000000	-5.000000	0.000000
10.000000	-5.000000	0.000000
12.000000	-5.000000	0.000000
14.000000	-5.000000	0.000000
16.000000	-5.000000	0.000000
18.000000	-5.000000	0.000000
20.000000	-5.000000	0.000000
22.000000	-5.000000	0.000000
24.000000	-5.000000	0.000000
26.000000	-5.000000	0.000000
28.000000	-5.000000	0.000000
30.000000	-5.000000	0.000000
32.000000	-5.000000	0.000000
34.000000	-5.000000	0.000000
36.000000	-5.000000	0.000000
38.000000	-5.000000	0.000000
40.000000	-5.000000	0.000000
42.000000	-5.000000	0.000000
44.000000	-5.000000	0.000000
46.000000	-5.000000	0.000000
48.000000	-5.000000	0.000000
0.000000	0.000000	0.000000
2.000000	0.000000	0.000000
4.000000	0.000000	0.000000
6.000000	0.000000	0.000000
8.000000	0.000000	0.000000
10.000000	0.000000	0.000000
12.000000	0.000000	0.000000
14.000000	0.000000	0.000000
16.000000	0.000000	0.000000
18.000000	0.000000	0.000000
20.000000	0.000000	0.000000
22.000000	0.000000	0.000000
24.000000	0.000000	0.000000
26.000000	0.000000	0.000000
28.000000	0.000000	0.000000
30.000000	0.000000	0.000000
32.000000	0.000000	0.000000
34.000000	0.000000	0.000000
36.000000	0.000000	0.000000
38.000000	0.000000	0.000000
40.000000	0.000000	0.000000
42.000000	0.000000	0.000000
44.000000	0.000000	0.000000
46.000000	0.000000	0.000000
48.000000	0.000000	0.000000
0.000000	5.000000	0.000000
2.000000	5.000000	0.000000
4.000000	5.000000	0.000000
6.000000	5.000000	0.000000
8.000000	5.000000	0.000000
10.000000	5.000000	0.000000
12.000000	5.000000	0.000000
14.000000	5.000000	0.000000
16.000000	5.000000	0.000000
18.000000	5.000000	0.000000
20.000000	5.000000	0.000000
22.000000	5.000000	0.000000
24.000000	5.000000	0.000000
26.000000	5.000000	0.000000
28.000000	5.000000	0.000000
30.000000	5.000000	0.000000
32.000000	5.000000	0.000000
34.000000	5.000000	0.000000
36.000000	5.000000	0.000000
38.000000	5.000000	0.000000
40.000000	5.000000	0.000000
42.000000	5.000000	0.000000
44.000000	5.000000	0.000000
46.000000	5.000000	0.000000
48.000000	5.000000	0.000000
40.800000	-7.000000	0.000000
24.000000	-7.000000	0.000000
7.200000	-7.000000	0.000000
7.200000	7.000000	0.000000
24.000000	7.000000	0.000000
40.800000	7.000000	0.000000
40.800000	-7.000000	32.690000
24.000000	-7.000000	32.690000
7.200000	-7.000000	32.690000
7.200000	7.000000	32.690000
24.000000	7.000000	32.690000
40.800000	7.000000	32.690000
57.600000	7.000000	16.345000
57.600000	-7.000000	16.345000
-9.600000	-7.000000	16.345000
-9.600000	7.000000	16.345000
2087.600000	1997.058824	0.000000
2087.600000	1957.117647	0.000000
2087.600000	1917.176471	0.000000
2087.600000	1877.235294	0.000000
2087.600000	1837.294118	0.000000
2087.600000	1797.352941	0.000000
2087.600000	1757.411765	0.000000
2087.600000	1717.470588	0.000000
2087.600000	1677.529412	0.000000
2087.600000	1637.588235	0.000000
2087.600000	1597.647059	0.000000
2087.600000	1557.705882	0.000000
2087.600000	1517.764706	0.000000
2087.600000	1477.823529	0.000000
2087.600000	1437.882353	0.000000
2087.600000	1397.941176	0.000000
2087.600000	1358.000000	0.000000
2087.600000	1318.058824	0.000000
2087.600000	1278.117647	0.000000
2087.600000	1238.176471	0.000000
2087.600000	1198.235294	0.000000
2087.600000	1158.294118	0.000000
2087.600000	1118.352941	0.000000
2087.600000	1078.411765	0.000000
2087.600000	1038.470588	0.000000
2087.600000	998.529412	0.000000
2087.600000	958.588235	0.000000
2087.600000	918.647059	0.000000
2087.600000	878.705882	0.000000
2087.600000	838.764706	0.000000
2087.600000	798.823529	0.000000
2087.600000	758.882353	0.000000
2087.600000	718.941176	0.000000
2087.600000	679.000000	0.000000
2087.600000	639.058824	0.000000
2087.600000	599.117647	0.000000
2087.600000	559.176471	0.000000
2087.600000	519.235294	0.000000
2087.600000	479.294118	0.000000
2087.600000	439.352941	0.000000
2087.600000	399.411765	0.000000
2087.600000	359.470588	0.000000
2087.600000	319.529412	0.000000
2087.600000	279.588235	0.000000
2087.600000	239.647059	0.000000
2087.600000	199.705882	0.000000
2087.600000	159.764706	0.000000
2087.600000	119.823529	0.000000
2087.600000	79.882353	0.000000
2087.600000	39.941176	0.000000
2087.600000	0.000000	0.000000
2087.600000	-39.941176	0.000000
2087.600000	-79.882353	0.000000
2087.600000	-119.823529	0.000000
2087.600000	-159.764706	0.000000
2087.600000	-199.705882	0.000000
2087.600000	-239.647059	0.000000
2087.600000	-279.588235	0.000000
2087.600000	-319.529412	0.000000
2087.600000	-359.470588	0.000000
2087.600000	-399.411765	0.000000
2087.600000	-439.352941	0.000000
2087.600000	-479.294118	0.000000
2087.600000	-519.235294	0.000000
2087.600000	-559.176471	0.000000
2087.600000	-599.117647	0.000000
2087.600000	-639.058824	0.000000
2087.600000	-679.000000	0.000000
2087.600000	-718.941176	0.000000
2087.600000	-758.882353	0.000000
2087.600000	-798.823529	0.000000
2087.600000	-838.764706	0.000000
2087.600000	-878.705882	0.000000
2087.600000	-918.647059	0.000000
2087.600000	-958.588235	0.000000
2087.600000	-998.529412	0.000000
2087.600000	-1038.470588	0.000000
2087.600000	-1078.411765	0.000000
2087.600000	-1118.352941	0.000000
2087.600000	-1158.294118	0.000000
2087.600000	-1198.235294	0.000000
2087.600000	-1238.176471	0.000000
2087.600000	-1278.117647	0.000000
2087.600000	-1318.058824	0.000000
2087.600000	-1358.000000	0.000000
2087.600000	-1397.941176	0.000000
2087.600000	-1437.882353	0.000000
2087.600000	-1477.823529	0.000000
2087.600000	-1517.764706	0.000000
2087.600000	-1557.705882	0.000000
2087.600000	-1597.647059	0.000000
2087.600000	-1637.588235	0.000000
2087.600000	-1677.529412	0.000000
2087.600000	-1717.470588	0.000000
2087.600000	-1757.411765	0.000000
2087.600000	-1797.352941	0.000000
2087.600000	-1837.294118	0.000000
2087.600000	-1877.235294	0.000000
2087.600000	-1917.176471	0.000000
2087.600000	-1957.117647	0.000000
2087.600000	-1997.058824	0.000000
2047.915385	-2037.000000	0.000000
2008.230769	-2037.000000	0.000000
1968.546154	-2037.000000	0.000000
1928.861538	-2037.000000	0.000000
1889.176923	-2037.000000	0.000000
1849.492308	-2037.000000	0.000000
1809.807692	-2037.000000	0.000000
1770.123077	-2037.000000	0.000000
1730.438462	-2037.000000	0.000000
1690.753846	-2037.000000	0.000000
1651.069231	-2037.000000	0.000000
1611.384615	-2037.000000	0.000000
1571.700000	-2037.000000	0.000000
1532.015385	-2037.000000	0.000000
1492.330769	-2037.000000	0.000000
1452.646154	-2037.000000	0.000000
1412.961538	-2037.000000	0.000000
1373.276923	-2037.000000	0.000000
1333.592308	-2037.000000	0.000000
1293.907692	-2037.000000	0.000000
1254.223077	-2037.000000	0.000000
1214.538462	-2037.000000	0.000000
1174.853846	-2037.000000	0.000000
1135.169231	-2037.000000	0.000000
1095.484615	-2037.000000	0.000000
1055.800000	-2037.000000	0.000000
1016.115385	-2037.000000	0.000000
976.430769	-2037.000000	0.000000
936.746154	-2037.000000	0.000000
897.061538	-2037.000000	0.000000
857.376923	-2037.000000	0.000000
817.692308	-2037.000000	0.000000
778.007692	-2037.000000	0.000000
738.323077	-2037.000000	0.000000
698.638462	-2037.000000	0.000000
658.953846	-2037.000000	0.000000
619.269231	-2037.000000	0.000000
579.584615	-2037.000000	0.000000
539.900000	-2037.000000	0.000000
500.215385	-2037.000000	0.000000
460.530769	-2037.000000	0.000000
420.846154	-2037.000000	0.000000
381.161538	-2037.000000	0.000000
341.476923	-2037.000000	0.000000
301.792308	-2037.000000	0.000000
262.107692	-2037.000000	0.000000
222.423077	-2037.000000	0.000000
182.738462	-2037.000000	0.000000
143.053846	-2037.000000	0.000000
103.369231	-2037.000000	0.000000
63.684615	-2037.000000	0.000000
24.000000	-2037.000000	0.000000
-15.684615	-2037.000000	0.000000
-55.369231	-2037.000000	0.000000
-95.053846	-2037.000000	0.000000
-134.738462	-2037.000000	0.000000
-174.423077	-2037.000000	0.000000
-214.107692	-2037.000000	0.000000
-253.792308	-2037.000000	0.000000
-293.476923	-2037.000000	0.000000
-333.161538	-2037.000000	0.000000
-372.846154	-2037.000000	0.000000
-412.530769	-2037.000000	0.000000
-452.215385	-2037.000000	0.000000
-491.900000	-2037.000000	0.000000
-531.584615	-2037.000000	0.000000
-571.269231	-2037.000000	0.000000
-610.953846	-2037.000000	0.000000
-650.638462	-2037.000000	0.000000
-690.323077	-2037.000000	0.000000
-730.007692	-2037.000000	0.000000
-769.692308	-2037.000000	0.000000
-809.376923	-2037.000000	0.000000
-849.061538	-2037.000000	0.000000
-888.746154	-2037.000000	0.000000
-928.430769	-2037.000000	0.000000
-968.115385	-2037.000000	0.000000
-1007.800000	-2037.000000	0.000000
-1047.484615	-2037.000000	0.000000
-1087.169231	-2037.000000	0.000000
-1126.853846	-2037.000000	0.000000
-1166.538462	-2037.000000	0.000000
-1206.223077	-2037.000000	0.000000
-1245.907692	-2037.000000	0.000000
-1285.592308	-2037.000000	0.000000
-1325.276923	-2037.000000	0.000000
-1364.961538	-2037.000000	0.000000
-1404.646154	-2037.000000	0.000000
-1444.330769	-2037.000000	0.000000
-1484.015385	-2037.000000	0.000000
-1523.700000	-2037.000000	0.000000
-1563.384615	-2037.000000	0.000000
-1603.069231	-2037.000000	0.000000
-1642.753846	-2037.000000	0.000000
-1682.438462	-2037.000000	0.000000
-1722.123077	-2037.000000	0.000000
-1761.807692	-2037.000000	0.000000
-1801.492308	-2037.000000	0.000000
-1841.176923	-2037.000000	0.000000
-1880.861538	-2037.000000	0.000000
-1920.546154	-2037.000000	0.000000
-1960.230769	-2037.000000	0.000000
[...]
CELL_DATA 945
SCALARS res0 double 1
LOOKUP_TABLE default
100.000000 100.000000 100.000000 100.000000 100.000000 100.000000 100.000000 100.000000 100.000000 100.000000 100.000000 100.000000 100.000000 100.000000 100.000000 100.000000 100.000000 100.000000 100.000000 100.000000 100.000000 100.000000 100.000000 100.000000 100.000000 100.000000 100.000000 100.000000 100.000000 100.000000 100.000000 100.000000 100.000000 100.000000 100.000000 100.000000 100.000000 100.000000 100.000000 100.000000 100.000000 100.000000 100.000000 100.000000 100.000000 100.000000 100.000000 100.000000 100.000000 100.000000 100.000000 100.000000 100.000000 100.000000 100.000000 100.000000 100.000000 100.000000 100.000000 100.000000 100.000000 100.000000 100.000000 100.000000 100.000000 100.000000 100.000000 100.000000 100.000000 100.000000 100.000000 100.000000 100.000000 100.000000 100.000000 100.000000 100.000000 100.000000 100.000000 100.000000 100.000000 100.000000 100.000000 100.000000 100.000000 100.000000 100.000000 100.000000 100.000000 100.000000 100.000000 100.000000 100.000000 100.000000 100.000000 100.000000 100.000000 100.000000 100.000000 100.000000 100.000000 100.000000 100.000000 100.000000 100.000000 100.000000 100.000000 100.000000 100.000000 100.000000 100.000000 100.000000 100.000000 100.000000 100.000000 100.000000 100.000000 100.000000 100.000000 100.000000 100.000000 100.000000 100.000000 100.000000 100.000000 100.000000 100.000000 100.000000 100.000000 100.000000 100.000000 100.000000 100.000000 100.000000 100.000000 100.000000 100.000000 100.000000 100.000000 100.000000 100.000000 100.000000 100.000000 100.000000 100.000000 100.000000 100.000000 100.000000 100.000000 100.000000 100.000000 100.000000 100.000000 100.000000 100.000000 100.000000 100.000000 100.000000 100.000000 100.000000 100.000000 100.000000 100.000000 100.000000 100.000000 100.000000 100.000000 100.000000 100.000000 100.000000 100.000000 100.000000 100.000000 100.000000 100.000000 100.000000 100.000000 100.000000 100.000000 100.000000 100.000000 100.000000 100.000000 100.000000 100.000000 100.000000 100.000000 100.000000 100.000000 100.000000 100.000000 100.000000 100.000000 100.000000 100.000000 100.000000 100.000000 100.000000 100.000000 100.000000 100.000000 100.000000 100.000000 100.000000 100.000000 100.000000 100.000000 100.000000 100.000000 100.000000 100.000000 100.000000 100.000000 100.000000 100.000000 100.000000 100.000000 100.000000 100.000000 100.000000 100.000000 100.000000 100.000000 100.000000 100.000000 100.000000 100.000000 100.000000 100.000000 100.000000 100.000000 100.000000 100.000000 100.000000 100.000000 100.000000 100.000000 100.000000 100.000000 100.000000 100.000000 100.000000 100.000000 100.000000 100.000000 100.000000 100.000000 100.000000 100.000000 100.000000 100.000000 100.000000 100.000000 100.000000 100.000000 100.000000 100.000000 100.000000 100.000000 100.000000 100.000000 100.000000 100.000000 100.000000 100.000000 100.000000 100.000000 100.000000 100.000000 100.000000 100.000000 100.000000 100.000000 100.000000 100.000000 100.000000 100.000000 100.000000 100.000000 100.000000 100.000000 100.000000 100.000000 100.000000 100.000000 100.000000 100.000000 100.000000 100.000000 100.000000 100.000000 100.000000 100.000000 100.000000 100.000000 100.000000 100.000000 100.000000 100.000000 100.000000 100.000000 100.000000 100.000000 100.000000 100.000000 100.000000 100.000000 100.000000 100.000000 100.000000 100.000000 100.000000 100.000000 100.000000 100.000000 100.000000 100.000000 100.000000 100.000000 100.000000 100.000000 100.000000 100.000000 100.000000 100.000000 100.000000 100.000000 100.000000 100.000000 100.000000 100.000000 100.000000 100.000000 100.000000 100.000000 100.000000 100.000000 100.000000 100.000000 100.000000 100.000000 100.000000 100.000000 100.000000 100.000000 100.000000 100.000000 100.000000 100.000000 100.000000 100.000000 100.000000 100.000000 100.000000 100.000000 100.000000 100.000000 100.000000 100.000000 100.000000 100.000000 100.000000 100.000000 100.000000 100.000000 100.000000 100.000000 100.000000 100.000000 100.000000 100.000000 100.000000 100.000000 100.000000 100.000000 100.000000 100.000000 100.000000 100.000000 100.000000 100.000000 100.000000 100.000000 100.000000 100.000000 100.000000 100.000000 100.000000 100.000000 100.000000 100.000000 100.000000 100.000000 100.000000 100.000000 100.000000 100.000000 100.000000 100.000000 100.000000 100.000000 100.000000 100.000000 100.000000 100.000000 100.000000 100.000000 100.000000 100.000000 100.000000 100.000000 100.000000 100.000000 100.000000 100.000000 100.000000 100.000000 100.000000 100.000000 100.000000 100.000000 100.000000 100.000000 100.000000 100.000000 100.000000 100.000000 100.000000 100.000000 100.000000 100.000000 100.000000 100.000000 100.000000 100.000000 100.000000 100.000000 100.000000 100.000000 100.000000 100.000000 100.000000 100.000000 100.000000 100.000000 100.000000 100.000000 100.000000 100.000000 100.000000 100.000000 100.000000 100.000000 100.000000 100.000000 100.000000 100.000000 100.000000 100.000000 100.000000 100.000000 100.000000 100.000000 100.000000 100.000000 100.000000 100.000000 100.000000 100.000000 100.000000 100.000000 100.000000 100.000000 100.000000 100.000000 100.000000 100.000000 100.000000 100.000000 100.000000 100.000000 100.000000 100.000000 100.000000 100.000000 100.000000 100.000000 100.000000 100.000000 100.000000 100.000000 100.000000 100.000000 100.000000 100.000000 100.000000 100.000000 100.000000 100.000000 100.000000 100.000000 100.000000 100.000000 100.000000 100.000000 100.000000 100.000000 100.000000 100.000000 100.000000 100.000000 100.000000 100.000000 100.000000 100.000000 100.000000 100.000000 100.000000 100.000000 100.000000 100.000000 100.000000 100.000000 100.000000 100.000000 100.000000 100.000000 100.000000 100.000000 100.000000 100.000000 100.000000 100.000000 100.000000 100.000000 100.000000 100.000000 100.000000 100.000000 100.000000 100.000000 100.000000 100.000000 100.000000 100.000000 100.000000 100.000000 100.000000 100.000000 100.000000 100.000000 100.000000 100.000000 100.000000 100.000000 100.000000 100.000000 100.000000 100.000000 100.000000 100.000000 100.000000 100.000000 100.000000 100.000000 100.000000 100.000000 100.000000 100.000000 100.000000 100.000000 100.000000 100.000000 100.000000 100.000000 100.000000 100.000000 100.000000 100.000000 100.000000 100.000000 100.000000 100.000000 100.000000 100.000000 100.000000 100.000000 100.000000 100.000000 100.000000 100.000000 100.000000 100.000000 100.000000 100.000000 100.000000 100.000000 100.000000 100.000000 100.000000 100.000000 100.000000 100.000000 100.000000 100.000000 100.000000 100.000000 100.000000 100.000000 100.000000 100.000000 100.000000 100.000000 100.000000 100.000000 100.000000 100.000000 100.000000 100.000000 100.000000 100.000000 100.000000 100.000000 100.000000 100.000000 100.000000 100.000000 100.000000 100.000000 100.000000 100.000000 100.000000 100.000000 100.000000 100.000000 100.000000 100.000000 100.000000 100.000000 100.000000 100.000000 100.000000 100.000000 100.000000 100.000000 100.000000 100.000000 100.000000 100.000000 100.000000 100.000000 100.000000 100.000000 100.000000 100.000000 100.000000 100.000000 100.000000 100.000000 100.000000 100.000000 100.000000 100.000000 100.000000 100.000000 100.000000 100.000000 100.000000 100.000000 100.000000 100.000000 100.000000 100.000000 100.000000 100.000000 100.000000 100.000000 100.000000 100.000000 100.000000 100.000000 100.000000 100.000000 100.000000 100.000000 100.000000 100.000000 100.000000 100.000000 100.000000 100.000000 100.000000 100.000000 100.000000 100.000000 100.000000 100.000000 100.000000 100.000000 100.000000 100.000000 100.000000 100.000000 100.000000 100.000000 100.000000 100.000000 100.000000 100.000000 100.000000 100.000000 100.000000 100.000000 100.000000 100.000000 100.000000 100.000000 100.000000 100.000000 100.000000 100.000000 100.000000 100.000000 100.000000 100.000000 100.000000 100.000000 100.000000 100.000000 100.000000 100.000000 100.000000 100.000000 100.000000 100.000000 100.000000 100.000000 100.000000 100.000000 100.000000 100.000000 100.000000 100.000000 100.000000 100.000000 100.000000 100.000000 100.000000 100.000000 100.000000 100.000000 100.000000 100.000000 100.000000 100.000000 100.000000 100.000000 100.000000 100.000000 100.000000 100.000000 100.000000 100.000000 100.000000 100.000000 100.000000 100.000000 100.000000 100.000000 100.000000 100.000000 100.000000 100.000000 100.000000 100.000000 100.000000 100.000000 100.000000 100.000000 100.000000 100.000000 100.000000 100.000000 100.000000 100.000000 100.000000 100.000000 100.000000 100.000000 100.000000 100.000000 100.000000 100.000000 100.000000 100.000000 100.000000 100.000000 100.000000 100.000000 100.000000 100.000000 100.000000 100.000000 100.000000 100.000000 100.000000 100.000000 100.000000 100.000000 100.000000 100.000000 100.000000 100.000000 100.000000 100.000000 100.000000 100.000000 100.000000 100.000000 100.000000 100.000000 100.000000 100.000000 100.000000 100.000000 100.000000 100.000000 100.000000 100.000000 100.000000 100.000000 100.000000 100.000000 100.000000 100.000000 100.000000 100.000000 100.000000 100.000000 100.000000 100.000000 100.000000 100.000000 100.000000 100.000000 100.000000 100.000000 100.000000 100.000000 100.000000 100.000000 100.000000 100.000000 100.000000 100.000000 100.000000 100.000000 100.000000 100.000000 100.000000 100.000000 100.000000 100.000000 100.000000 100.000000 100.000000 100.000000 100.000000 100.000000 100.000000 100.000000 100.000000 100.000000 100.000000 100.000000 100.000000 100.000000 100.000000 100.000000 100.000000 100.000000 100.000000 100.000000 100.000000 100.000000 100.000000 100.000000 100.000000 100.000000 100.000000 100.000000 100.000000 100.000000 100.000000 100.000000 100.000000 100.000000 100.000000 100.000000 100.000000 100.000000 100.000000 100.000000 100.000000 100.000000 100.000000 100.000000 100.000000 100.000000 100.000000 100.000000 100.000000 100.000000 100.000000 100.000000 100.000000 100.000000 100.000000 100.000000 100.000000 100.000000 100.000000 100.000000 100.000000 100.000000 100.000000 100.000000 100.000000 100.000000 100.000000 100.000000 100.000000 100.000000 100.000000 100.000000 100.000000 100.000000 100.000000 100.000000 100.000000 100.000000 100.000000 100.000000 100.000000 100.000000 
SCALARS phase0 double 1
LOOKUP_TABLE default
0.000000 0.000000 0.000000 0.000000 0.000000 0.000000 0.000000 0.000000 0.000000 0.000000 0.000000 0.000000 0.000000 0.000000 0.000000 0.000000 0.000000 0.000000 0.000000 0.000000 0.000000 0.000000 0.000000 0.000000 0.000000 0.000000 0.000000 0.000000 0.000000 0.000000 0.000000 0.000000 0.000000 0.000000 0.000000 0.000000 0.000000 0.000000 0.000000 0.000000 0.000000 0.000000 0.000000 0.000000 0.000000 0.000000 0.000000 0.000000 0.000000 0.000000 0.000000 0.000000 0.000000 0.000000 0.000000 0.000000 0.000000 0.000000 0.000000 0.000000 0.000000 0.000000 0.000000 0.000000 0.000000 0.000000 0.000000 0.000000 0.000000 0.000000 0.000000 0.000000 0.000000 0.000000 0.000000 0.000000 0.000000 0.000000 0.000000 0.000000 0.000000 0.000000 0.000000 0.000000 0.000000 0.000000 0.000000 0.000000 0.000000 0.000000 0.000000 0.000000 0.000000 0.000000 0.000000 0.000000 0.000000 0.000000 0.000000 0.000000 0.000000 0.000000 0.000000 0.000000 0.000000 0.000000 0.000000 0.000000 0.000000 0.000000 0.000000 0.000000 0.000000 0.000000 0.000000 0.000000 0.000000 0.000000 0.000000 0.000000 0.000000 0.000000 0.000000 0.000000 0.000000 0.000000 0.000000 0.000000 0.000000 0.000000 0.000000 0.000000 0.000000 0.000000 0.000000 0.000000 0.000000 0.000000 0.000000 0.000000 0.000000 0.000000 0.000000 0.000000 0.000000 0.000000 0.000000 0.000000 0.000000 0.000000 0.000000 0.000000 0.000000 0.000000 0.000000 0.000000 0.000000 0.000000 0.000000 0.000000 0.000000 0.000000 0.000000 0.000000 0.000000 0.000000 0.000000 0.000000 0.000000 0.000000 0.000000 0.000000 0.000000 0.000000 0.000000 0.000000 0.000000 0.000000 0.000000 0.000000 0.000000 0.000000 0.000000 0.000000 0.000000 0.000000 0.000000 0.000000 0.000000 0.000000 0.000000 0.000000 0.000000 0.000000 0.000000 0.000000 0.000000 0.000000 0.000000 0.000000 0.000000 0.000000 0.000000 0.000000 0.000000 0.000000 0.000000 0.000000 0.000000 0.000000 0.000000 0.000000 0.000000 0.000000 0.000000 0.000000 0.000000 0.000000 0.000000 0.000000 0.000000 0.000000 0.000000 0.000000 0.000000 0.000000 0.000000 0.000000 0.000000 0.000000 0.000000 0.000000 0.000000 0.000000 0.000000 0.000000 0.000000 0.000000 0.000000 0.000000 0.000000 0.000000 0.000000 0.000000 0.000000 0.000000 0.000000 0.000000 0.000000 0.000000 0.000000 0.000000 0.000000 0.000000 0.000000 0.000000 0.000000 0.000000 0.000000 0.000000 0.000000 0.000000 0.000000 0.000000 0.000000 0.000000 0.000000 0.000000 0.000000 0.000000 0.000000 0.000000 0.000000 0.000000 0.000000 0.000000 0.000000 0.000000 0.000000 0.000000 0.000000 0.000000 0.000000 0.000000 0.000000 0.000000 0.000000 0.000000 0.000000 0.000000 0.000000 0.000000 0.000000 0.000000 0.000000 0.000000 0.000000 0.000000 0.000000 0.000000 0.000000 0.000000 0.000000 0.000000 0.000000 0.000000 0.000000 0.000000 0.000000 0.000000 0.000000 0.000000 0.000000 0.000000 0.000000 0.000000 0.000000 0.000000 0.000000 0.000000 0.000000 0.000000 0.000000 0.000000 0.000000 0.000000 0.000000 0.000000 0.000000 0.000000 0.000000 0.000000 0.000000 0.000000 0.000000 0.000000 0.000000 0.000000 0.000000 0.000000 0.000000 0.000000 0.000000 0.000000 0.000000 0.000000 0.000000 0.000000 0.000000 0.000000 0.000000 0.000000 0.000000 0.000000 0.000000 0.000000 0.000000 0.000000 0.000000 0.000000 0.000000 0.000000 0.000000 0.000000 0.000000 0.000000 0.000000 0.000000 0.000000 0.000000 0.000000 0.000000 0.000000 0.000000 0.000000 0.000000 0.000000 0.000000 0.000000 0.000000 0.000000 0.000000 0.000000 0.000000 0.000000 0.000000 0.000000 0.000000 0.000000 0.000000 0.000000 0.000000 0.000000 0.000000 0.000000 0.000000 0.000000 0.000000 0.000000 0.000000 0.000000 0.000000 0.000000 0.000000 0.000000 0.000000 0.000000 0.000000 0.000000 0.000000 0.000000 0.000000 0.000000 0.000000 0.000000 0.000000 0.000000 0.000000 0.000000 0.000000 0.000000 0.000000 0.000000 0.000000 0.000000 0.000000 0.000000 0.000000 0.000000 0.000000 0.000000 0.000000 0.000000 0.000000 0.000000 0.000000 0.000000 0.000000 0.000000 0.000000 0.000000 0.000000 0.000000 0.000000 0.000000 0.000000 0.000000 0.000000 0.000000 0.000000 0.000000 0.000000 0.000000 0.000000 0.000000 0.000000 0.000000 0.000000 0.000000 0.000000 0.000000 0.000000 0.000000 0.000000 0.000000 0.000000 0.000000 0.000000 0.000000 0.000000 0.000000 0.000000 0.000000 0.000000 0.000000 0.000000 0.000000 0.000000 0.000000 0.000000 0.000000 0.000000 0.000000 0.000000 0.000000 0.000000 0.000000 0.000000 0.000000 0.000000 0.000000 0.000000 0.000000 0.000000 0.000000 0.000000 0.000000 0.000000 0.000000 0.000000 0.000000 0.000000 0.000000 0.000000 0.000000 0.000000 0.000000 0.000000 0.000000 0.000000 0.000000 0.000000 0.000000 0.000000 0.000000 0.000000 0.000000 0.000000 0.000000 0.000000 0.000000 0.000000 0.000000 0.000000 0.000000 0.000000 0.000000 0.000000 0.000000 0.000000 0.000000 0.000000 0.000000 0.000000 0.000000 0.000000 0.000000 0.000000 0.000000 0.000000 0.000000 0.000000 0.000000 0.000000 0.000000 0.000000 0.000000 0.000000 0.000000 0.000000 0.000000 0.000000 0.000000 0.000000 0.000000 0.000000 0.000000 0.000000 0.000000 0.000000 0.000000 0.000000 0.000000 0.000000 0.000000 0.000000 0.000000 0.000000 0.000000 0.000000 0.000000 0.000000 0.000000 0.000000 0.000000 0.000000 0.000000 0.000000 0.000000 0.000000 0.000000 0.000000 0.000000 0.000000 0.000000 0.000000 0.000000 0.000000 0.000000 0.000000 0.000000 0.000000 0.000000 0.000000 0.000000 0.000000 0.000000 0.000000 0.000000 0.000000 0.000000 0.000000 0.000000 0.000000 0.000000 0.000000 0.000000 0.000000 0.000000 0.000000 0.000000 0.000000 0.000000 0.000000 0.000000 0.000000 0.000000 0.000000 0.000000 0.000000 0.000000 0.000000 0.000000 0.000000 0.000000 0.000000 0.000000 0.000000 0.000000 0.000000 0.000000 0.000000 0.000000 0.000000 0.000000 0.000000 0.000000 0.000000 0.000000 0.000000 0.000000 0.000000 0.000000 0.000000 0.000000 0.000000 0.000000 0.000000 0.000000 0.000000 0.000000 0.000000 0.000000 0.000000 0.000000 0.000000 0.000000 0.000000 0.000000 0.000000 0.000000 0.000000 0.000000 0.000000 0.000000 0.000000 0.000000 0.000000 0.000000 0.000000 0.000000 0.000000 0.000000 0.000000 0.000000 0.000000 0.000000 0.000000 0.000000 0.000000 0.000000 0.000000 0.000000 0.000000 0.000000 0.000000 0.000000 0.000000 0.000000 0.000000 0.000000 0.000000 0.000000 0.000000 0.000000 0.000000 0.000000 0.000000 0.000000 0.000000 0.000000 0.000000 0.000000 0.000000 0.000000 0.000000 0.000000 0.000000 0.000000 0.000000 0.000000 0.000000 0.000000 0.000000 0.000000 0.000000 0.000000 0.000000 0.000000 0.000000 0.000000 0.000000 0.000000 0.000000 0.000000 0.000000 0.000000 0.000000 0.000000 0.000000 0.000000 0.000000 0.000000 0.000000 0.000000 0.000000 0.000000 0.000000 0.000000 0.000000 0.000000 0.000000 0.000000 0.000000 0.000000 0.000000 0.000000 0.000000 0.000000 0.000000 0.000000 0.000000 0.000000 0.000000 0.000000 0.000000 0.000000 0.000000 0.000000 0.000000 0.000000 0.000000 0.000000 0.000000 0.000000 0.000000 0.000000 0.000000 0.000000 0.000000 0.000000 0.000000 0.000000 0.000000 0.000000 0.000000 0.000000 0.000000 0.000000 0.000000 0.000000 0.000000 0.000000 0.000000 0.000000 0.000000 0.000000 0.000000 0.000000 0.000000 0.000000 0.000000 0.000000 0.000000 0.000000 0.000000 0.000000 0.000000 0.000000 0.000000 0.000000 0.000000 0.000000 0.000000 0.000000 0.000000 0.000000 0.000000 0.000000 0.000000 0.000000 0.000000 0.000000 0.000000 0.000000 0.000000 0.000000 0.000000 0.000000 0.000000 0.000000 0.000000 0.000000 0.000000 0.000000 0.000000 0.000000 0.000000 0.000000 0.000000 0.000000 0.000000 0.000000 0.000000 0.000000 0.000000 0.000000 0.000000 0.000000 0.000000 0.000000 0.000000 0.000000 0.000000 0.000000 0.000000 0.000000 0.000000 0.000000 0.000000 0.000000 0.000000 0.000000 0.000000 0.000000 0.000000 0.000000 0.000000 0.000000 0.000000 0.000000 0.000000 0.000000 0.000000 0.000000 0.000000 0.000000 0.000000 0.000000 0.000000 0.000000 0.000000 0.000000 0.000000 0.000000 0.000000 0.000000 0.000000 0.000000 0.000000 0.000000 0.000000 0.000000 0.000000 0.000000 0.000000 0.000000 0.000000 0.000000 0.000000 0.000000 0.000000 0.000000 0.000000 0.000000 0.000000 0.000000 0.000000 0.000000 0.000000 0.000000 0.000000 0.000000 0.000000 0.000000 0.000000 0.000000 0.000000 0.000000 0.000000 0.000000 0.000000 0.000000 0.000000 0.000000 0.000000 0.000000 0.000000 0.000000 0.000000 0.000000 0.000000 0.000000 0.000000 0.000000 0.000000 0.000000 0.000000 0.000000 0.000000 0.000000 0.000000 0.000000 0.000000 0.000000 0.000000 0.000000 0.000000 0.000000 0.000000 0.000000 0.000000 0.000000 0.000000 0.000000 
SCALARS zones double 1
LOOKUP_TABLE default