# vtk DataFile Version 3.0
Output from R2
ASCII
DATASET UNSTRUCTURED_GRID
POINTS       1767 double
     0.00000     0.00000   0.
     0.00000    -0.05500   0.
     0.00000    -0.11550   0.
     0.00000    -0.18210   0.
     0.00000    -0.25530   0.
     0.00000    -0.33580   0.
     0.00000    -0.42440   0.
     0.00000    -0.52180   0.
     0.00000    -0.62900   0.
     0.00000    -0.74690   0.
     0.00000    -0.87660   0.
     0.00000    -1.01920   0.
     0.00000    -1.17610   0.
     0.00000    -1.34870   0.
     0.00000    -1.53860   0.
     0.00000    -1.74750   0.
     0.00000    -1.97720   0.
     0.00000    -2.23000   0.
     0.00000    -2.50800   0.
     0.06250     0.00000   0.
     0.06250    -0.05500   0.
     0.06250    -0.11550   0.
     0.06250    -0.18210   0.
     0.06250    -0.25530   0.
     0.06250    -0.33580   0.
     0.06250    -0.42440   0.
     0.06250    -0.52180   0.
     0.06250    -0.62900   0.
     0.06250    -0.74690   0.
     0.06250    -0.87660   0.
     0.06250    -1.01920   0.
     0.06250    -1.17610   0.
     0.06250    -1.34870   0.
     0.06250    -1.53860   0.
     0.06250    -1.74750   0.
     0.06250    -1.97720   0.
     0.06250    -2.23000   0.
     0.06250    -2.50800   0.
     0.12500     0.00000   0.
     0.12500    -0.05500   0.
     0.12500    -0.11550   0.
     0.12500    -0.18210   0.
     0.12500    -0.25530   0.
     0.12500    -0.33580   0.
     0.12500    -0.42440   0.
     0.12500    -0.52180   0.
     0.12500    -0.62900   0.
     0.12500    -0.74690   0.
     0.12500    -0.87660   0.
     0.12500    -1.01920   0.
     0.12500    -1.17610   0.
     0.12500    -1.34870   0.
     0.12500    -1.53860   0.
     0.12500    -1.74750   0.
     0.12500    -1.97720   0.
     0.12500    -2.23000   0.
     0.12500    -2.50800   0.
     0.18750     0.00000   0.
     0.18750    -0.05500   0.
     0.18750    -0.11550   0.
     0.18750    -0.18210   0.
     0.18750    -0.25530   0.
     0.18750    -0.33580   0.
     0.18750    -0.42440   0.
     0.18750    -0.52180   0.
     0.18750    -0.62900   0.
     0.18750    -0.74690   0.
     0.18750    -0.87660   0.
     0.18750    -1.01920   0.
     0.18750    -1.17610   0.
     0.18750    -1.34870   0.
     0.18750    -1.53860   0.
     0.18750    -1.74750   0.
     0.18750    -1.97720   0.
     0.18750    -2.23000   0.
     0.18750    -2.50800   0.
     0.25000     0.00000   0.
     0.25000    -0.05500   0.
     0.25000    -0.11550   0.
     0.25000    -0.18210   0.
     0.25000    -0.25530   0.
     0.25000    -0.33580   0.
     0.25000    -0.42440   0.
     0.25000    -0.52180   0.
     0.25000    -0.62900   0.
     0.25000    -0.74690   0.
     0.25000    -0.87660   0.
     0.25000    -1.01920   0.
     0.25000    -1.17610   0.
     0.25000    -1.34870   0.
     0.25000    -1.53860   0.
     0.25000    -1.74750   0.
     0.25000    -1.97720   0.
     0.25000    -2.23000   0.
     0.25000    -2.50800   0.
     0.31250     0.00000   0.
     0.31250    -0.05500   0.
     0.31250    -0.11550   0.
     0.31250    -0.18210   0.
     0.31250    -0.25530   0.
     0.31250    -0.33580   0.
     0.31250    -0.42440   0.
     0.31250    -0.52180   0.
     0.31250    -0.62900   0.
     0.31250    -0.74690   0.
     0.31250    -0.87660   0.
     0.31250    -1.01920   0.
     0.31250    -1.17610   0.
     0.31250    -1.34870   0.
     0.31250    -1.53860   0.
     0.31250    -1.74750   0.
     0.31250    -1.97720   0.
     0.31250    -2.23000   0.
     0.31250    -2.50800   0.
     0.37500     0.00000   0.
     0.37500    -0.05500   0.
     0.37500    -0.11550   0.
     0.37500    -0.18210   0.
     0.37500    -0.25530   0.
     0.37500    -0.33580   0.
     0.37500    -0.42440   0.
     0.37500    -0.52180   0.
     0.37500    -0.62900   0.
     0.37500    -0.74690   0.
     0.37500    -0.87660   0.
     0.37500    -1.01920   0.
     0.37500    -1.17610   0.
     0.37500    -1.34870   0.
     0.37500    -1.53860   0.
     0.37500    -1.74750   0.
     0.37500    -1.97720   0.
     0.37500    -2.23000   0.
     0.37500    -2.50800   0.
     0.43750     0.00000   0.
     0.43750    -0.05500   0.
     0.43750    -0.11550   0.
     0.43750    -0.18210   0.
     0.43750    -0.25530   0.
     0.43750    -0.33580   0.
     0.43750    -0.42440   0.
     0.43750    -0.52180   0.
     0.43750    -0.62900   0.
     0.43750    -0.74690   0.
     0.43750    -0.87660   0.
     0.43750    -1.01920   0.
     0.43750    -1.17610   0.
     0.43750    -1.34870   0.
     0.43750    -1.53860   0.
     0.43750    -1.74750   0.
     0.43750    -1.97720   0.
     0.43750    -2.23000   0.
     0.43750    -2.50800   0.
     0.50000     0.00000   0.
     0.50000    -0.05500   0.
     0.50000    -0.11550   0.
     0.50000    -0.18210   0.
     0.50000    -0.25530   0.
     0.50000    -0.33580   0.
     0.50000    -0.42440   0.
     0.50000    -0.52180   0.
     0.50000    -0.62900   0.
     0.50000    -0.74690   0.
     0.50000    -0.87660   0.
     0.50000    -1.01920   0.
     0.50000    -1.17610   0.
     0.50000    -1.34870   0.
     0.50000    -1.53860   0.
     0.50000    -1.74750   0.
     0.50000    -1.97720   0.
     0.50000    -2.23000   0.
     0.50000    -2.50800   0.
     0.56250     0.00000   0.
     0.56250    -0.05500   0.
     0.56250    -0.11550   0.
     0.56250    -0.18210   0.
     0.56250    -0.25530   0.
     0.56250    -0.33580   0.
     0.56250    -0.42440   0.
     0.56250    -0.52180   0.
     0.56250    -0.62900   0.
     0.56250    -0.74690   0.
     0.56250    -0.87660   0.
     0.56250    -1.01920   0.
     0.56250    -1.17610   0.
     0.56250    -1.34870   0.
     0.56250    -1.53860   0.
     0.56250    -1.74750   0.
     0.56250    -1.97720   0.
     0.56250    -2.23000   0.
     0.56250    -2.50800   0.
     0.62500     0.00000   0.
     0.62500    -0.05500   0.
     0.62500    -0.11550   0.
     0.62500    -0.18210   0.
     0.62500    -0.25530   0.
     0.62500    -0.33580   0.
     0.62500    -0.42440   0.
     0.62500    -0.52180   0.
     0.62500    -0.62900   0.
     0.62500    -0.74690   0.
     0.62500    -0.87660   0.
     0.62500    -1.01920   0.
     0.62500    -1.17610   0.
     0.62500    -1.34870   0.
     0.62500    -1.53860   0.
     0.62500    -1.74750   0.
     0.62500    -1.97720   0.
     0.62500    -2.23000   0.
     0.62500    -2.50800   0.
     0.68750     0.00000   0.
     0.68750    -0.05500   0.
     0.68750    -0.11550   0.
     0.68750    -0.18210   0.
     0.68750    -0.25530   0.
     0.68750    -0.33580   0.
     0.68750    -0.42440   0.
     0.68750    -0.52180   0.
     0.68750    -0.62900   0.
     0.68750    -0.74690   0.
     0.68750    -0.87660   0.
     0.68750    -1.01920   0.
     0.68750    -1.17610   0.
     0.68750    -1.34870   0.
     0.68750    -1.53860   0.
     0.68750    -1.74750   0.
     0.68750    -1.97720   0.
     0.68750    -2.23000   0.
     0.68750    -2.50800   0.
     0.75000     0.00000   0.
     0.75000    -0.05500   0.
     0.75000    -0.11550   0.
     0.75000    -0.18210   0.
     0.75000    -0.25530   0.
     0.75000    -0.33580   0.
     0.75000    -0.42440   0.
     0.75000    -0.52180   0.
     0.75000    -0.62900   0.
     0.75000    -0.74690   0.
     0.75000    -0.87660   0.
     0.75000    -1.01920   0.
     0.75000    -1.17610   0.
     0.75000    -1.34870   0.
     0.75000    -1.53860   0.
     0.75000    -1.74750   0.
     0.75000    -1.97720   0.
     0.75000    -2.23000   0.
     0.75000    -2.50800   0.
     0.81250     0.00000   0.
     0.81250    -0.05500   0.
     0.81250    -0.11550   0.
     0.81250    -0.18210   0.
     0.81250    -0.25530   0.
     0.81250    -0.33580   0.
     0.81250    -0.42440   0.
     0.81250    -0.52180   0.
     0.81250    -0.62900   0.
     0.81250    -0.74690   0.
     0.81250    -0.87660   0.
     0.81250    -1.01920   0.
     0.81250    -1.17610   0.
     0.81250    -1.34870   0.
     0.81250    -1.53860   0.
     0.81250    -1.74750   0.
     0.81250    -1.97720   0.
     0.81250    -2.23000   0.
     0.81250    -2.50800   0.
     0.87500     0.00000   0.
     0.87500    -0.05500   0.
     0.87500    -0.11550   0.
     0.87500    -0.18210   0.
     0.87500    -0.25530   0.
     0.87500    -0.33580   0.
     0.87500    -0.42440   0.
     0.87500    -0.52180   0.
     0.87500    -0.62900   0.
     0.87500    -0.74690   0.
     0.87500    -0.87660   0.
     0.87500    -1.01920   0.
     0.87500    -1.17610   0.
     0.87500    -1.34870   0.
     0.87500    -1.53860   0.
     0.87500    -1.74750   0.
     0.87500    -1.97720   0.
     0.87500    -2.23000   0.
     0.87500    -2.50800   0.
     0.93750     0.00000   0.
     0.93750    -0.05500   0.
     0.93750    -0.11550   0.
     0.93750    -0.18210   0.
     0.93750    -0.25530   0.
     0.93750    -0.33580   0.
     0.93750    -0.42440   0.
     0.93750    -0.52180   0.
     0.93750    -0.62900   0.
     0.93750    -0.74690   0.
     0.93750    -0.87660   0.
     0.93750    -1.01920   0.
     0.93750    -1.17610   0.
     0.93750    -1.34870   0.
     0.93750    -1.53860   0.
     0.93750    -1.74750   0.
     0.93750    -1.97720   0.
     0.93750    -2.23000   0.
     0.93750    -2.50800   0.
     1.00000     0.00000   0.
     1.00000    -0.05500   0.
     1.00000    -0.11550   0.
     1.00000    -0.18210   0.
     1.00000    -0.25530   0.
     1.00000    -0.33580   0.
     1.00000    -0.42440   0.
     1.00000    -0.52180   0.
     1.00000    -0.62900   0.
     1.00000    -0.74690   0.
     1.00000    -0.87660   0.
     1.00000    -1.01920   0.
     1.00000    -1.17610   0.
     1.00000    -1.34870   0.
     1.00000    -1.53860   0.
[...]
POINT_DATA      1767
CELL_DATA      1656
SCALARS Resistivity(Ohm-m) double 1
LOOKUP_TABLE default
            42.03143            42.48725            43.02285            43.64333            44.34271            45.18703            46.12408            47.12352            48.13091            49.12462            50.15147            51.11210            52.00697            52.77763            53.44459            53.97142            54.38073            54.72135            39.96744            40.37365            40.93264            41.71162            42.62991            43.67061            44.84219            46.03497            47.21596            48.39340            49.53141            50.62874            51.61792            52.52864            53.25915            53.85169            54.33368            54.73742            38.49872            38.73666            39.31524            40.14031            41.23909            42.46879            43.80714            45.20244            46.53936            47.82904            49.10806            50.29094            51.39461            52.33336            53.14524            53.79807            54.32819            54.77746            37.12146            37.26534            37.90400            38.94391            40.19997            41.64042            43.12071            44.60310            46.08070            47.50847            48.84890            50.10392            51.22644            52.24361            53.08667            53.79418            54.37052            54.85783            34.83599            35.70867            36.80150            38.05836            39.54656            41.13375            42.77162            44.38128            45.91962            47.39881            48.80371            50.09725            51.27617            52.28171            53.15081            53.85992            54.46552            54.95733            34.15338            35.04680            36.31092            37.76230            39.34297            41.04375            42.75927            44.45505            46.08948            47.62523            49.03374            50.30403            51.43664            52.45560            53.30230            54.02963            54.62155            55.13098            34.71880            35.58314            36.76762            38.10957            39.65904            41.36383            43.16534            44.91186            46.56516            48.08637            49.46812            50.72272            51.82487            52.76192            53.59355            54.27775            54.86331            55.33345            36.89473            37.64249            38.31370            39.21765            40.49896            42.11335            43.86993            45.67987            47.36676            48.88127            50.21583            51.37416            52.40152            53.29456            54.04130            54.69144            55.20279            55.65273            41.21433            41.46627            41.11266            41.03156            41.76390            43.16512            44.97378            46.77163            48.42955            49.91575            51.21422            52.32252            53.23231            53.99305            54.63479            55.16221            55.63867            56.00365            45.45782            46.15606            44.84103            43.38752            43.31741            44.48019            46.22942            48.17688            49.90664            51.33235            52.51914            53.47642            54.23774            54.84942            55.34696            55.77485            56.12982            56.46586            51.56235            52.57521            49.48898            46.03668            44.95447            45.86690            47.80200            49.83052            51.64680            53.09551            54.14909            54.90610            55.45700            55.88164            56.23540            56.52901            56.78047            56.98193            62.06450            61.68913            54.13540            48.20230            46.23935            47.14469            49.32840            51.74890            53.70979            55.09918            56.01792            56.55564            56.88044            57.10424            57.27697            57.41522            57.51655            57.61001            76.67897            67.87512            56.03228            48.71284            46.76505            48.16704            50.99758            53.81413            56.01333            57.44617            58.19421            58.50097            58.56676            58.52961            58.49196            58.43870            58.35669            58.28225            65.31096            61.74415            53.15512            47.39269            46.48536            48.94350            52.69526            56.21266            58.71462            60.11564            60.68592            60.68598            60.42115            60.12139            59.82898            59.56194            59.30232            59.05286            55.09430            54.44750            49.17612            45.45735            46.10817            49.85579            54.73326            59.02127            61.82933            63.23250            63.54345            63.19341            62.55380            61.88202            61.28474            60.74571            60.26966            59.87024            53.35520            53.63513            47.78090            44.66751            46.32115            51.25303            57.23953            62.32658            65.54268            66.78298            66.73786            65.96611            64.90549            63.84335            62.86978            62.02247            61.29320            60.69851            85.69197            63.73020            50.05094            45.36000            47.34137            53.30654            60.34870            66.15455            69.54415            70.76864            70.31744            68.99226            67.39474            65.85224            64.49137            63.32745            62.37673            61.59410            89.77071            68.08008            51.44889            46.16396            48.79138            55.79209            63.98496            70.55317            74.21576            74.98414            74.04412            72.16719            69.99171            67.95516            66.18752            64.70157            63.47156            62.49331            82.35338            63.49543            49.58741            46.14598            50.23296            58.68298            68.03944            75.35992            79.09621            79.66053            77.95593            75.35987            72.60797            70.05228            67.87450            66.07372            64.60219            63.41043            67.60115            53.52915            45.83234            45.64947            51.70193            61.71845            72.38746            80.39127            84.23841            84.17740            81.90887            78.59602            75.18622            72.11929            69.50495            67.35842            65.65714            64.31199            49.27009            47.03545            44.38319            46.30006            53.84127            65.13325            76.77056            85.33308            89.09571            88.71138            85.59842            81.61368            77.60844            74.02609            71.03610            68.60157            66.66390            65.14324            58.38837            52.34564            47.43841            48.81704            56.50936            68.50181            80.92149            89.77939            93.45749            92.55188            88.98674            84.31870            79.78419            75.74860            72.40747            69.75287            67.62316            65.92342            70.86108            59.76334            51.36557            51.45876            59.08114            71.30173            84.11243            93.38629            96.98113            95.79396            91.68265            86.56966            81.55055            77.20573            73.58067            70.71583            68.46692            66.64209            74.44456            59.25770            51.62875            52.26162            60.15238            72.77431            85.99902            95.52477            99.28354            97.88544            93.58133            88.20649            82.95600            78.33418            74.56637            71.53590            69.15414            67.25357            45.70578            49.11692            48.67306            51.43624            59.83746            72.70755            86.15680            96.07332           100.13177            98.91054            94.57596            89.18373            83.84416            79.15428            75.24373            72.16269            69.69446            67.72338            48.23719            48.97783            48.41593            50.90473            58.93619            71.34415            84.73479            94.85616            99.45570            98.78479            94.78755            89.54517            84.28864            79.54481            75.64203            72.50766            70.04765            68.05439            59.92871            55.82319            51.04217            51.18233            57.62904            68.98371            81.85564            92.21712            97.36736            97.40358            94.07736            89.20832            84.15547            79.60337            75.76080            72.70028            70.23781            68.28572            73.38625            61.71338            53.13460            51.04908            55.92722            65.96682            78.00390            88.29899            94.18282            95.15141            92.53597            88.23531            83.56302            79.27374            75.66645            72.69871            70.33937            68.42317            45.59925            53.14580            51.16764            49.66583            53.55923            62.34441            73.57684            83.72730            90.10186            91.97601            90.34737            86.76771            82.62540            78.70201            75.32041            72.54304            70.27291            68.48700            40.17125            47.48510            48.70109            47.78688            50.82452            58.46967            68.80873            78.77627            85.53290            88.27071            87.60249            84.89079            81.38895            77.91725            74.82327            72.23436            70.13528            68.45841            43.66898            49.31514            48.85391            46.66474            48.42371            54.86970            64.20672            73.65123            80.82722            84.33460            84.60723            82.76530            79.95068            76.94046            74.18862            71.82624            69.90423            68.37547            54.84086            56.19058            50.61888            46.02071            46.39897            51.58044            59.84108            68.87520            76.17984            80.43235            81.52508            80.47974            78.32769            75.82685            73.41396            71.34447            69.62679            68.23207            55.43097            56.41124            50.22417            44.93562            44.44049            48.54887            55.95453            64.52115            71.96079            76.67679            78.55490            78.17724            76.60680            74.60411            72.59502            70.80082            69.32521            68.08029            44.40856            49.06194            47.24290            43.22928            42.49126            45.96031            52.65141            60.75694            68.13736            73.28064            75.69565            75.97561            74.90014            73.34562            71.73357            70.23938            68.95613            67.91406            40.22897            45.71554            45.24133            41.73599            40.88837            43.85154            49.93030            57.58429            64.87969            70.24489            73.13948            73.89586            73.36410            72.20082            70.93268            69.70003            68.60640            67.68093            43.88933            48.71289            45.60788            41.12027            39.74777            42.20947            47.83296            55.07986            62.18397            67.69568            70.93861            72.14315            72.00144            71.24854            70.21361            69.19189            68.25055            67.45186            57.53983            53.05290            46.15426            40.67615            38.86161            40.98355            46.20467            53.15814            60.11905            65.70125            69.17354            70.68582            70.90062            70.37385            69.58459            68.70686            67.92654            67.25642            48.00078            48.23777            44.35451            39.73681            38.10979            40.10608            45.05240            51.76165            58.66644            64.22861            67.82798            69.59169            70.03228            69.73453            69.05661            68.33077            67.66430            67.09442            41.22193            44.05651            42.57820            39.00392            37.61931            39.56745            44.42970            51.00646            57.72184            63.25399            66.90607            68.79477            69.40432            69.23956            68.69067            68.03510            67.47902            66.97298            42.32289            46.32137            43.35007            39.18702            37.58786            39.42241            44.21952            50.71051            57.33144            62.80957            66.46349            68.32773            68.97105            68.87130            68.42967            67.89870            67.36667            66.92122            65.50167            55.45636            46.25486            40.01471            37.88136            39.63445            44.37040            50.79174            57.40090            62.84744            66.42432            68.23404            68.78929            68.70589            68.33026            67.83775            67.32622            66.85547            61.27104            56.13150            47.25215            40.45314            38.13105            39.94606            44.76996            51.27412            57.88119            63.22583            66.68543            68.36260            68.84203            68.71397            68.32701            67.81306            67.30203            66.83630            53.04729            52.23785            45.89114            39.91403            37.99818            40.13550            45.28740            52.02204            58.68567            63.92450            67.19936            68.72458            69.08517            68.87765            68.42015            67.88912            67.34815            66.88469            48.96681            50.19780            43.98760            38.77223            37.59285            40.31504            45.94172            52.93602            59.65931            64.82555            67.93641            69.30872            69.53521            69.16820            68.61923            68.01703            67.45927            66.98088            71.28789            54.55476            43.41912            37.81824            37.18795            40.50478            46.60448            53.92815            60.73600            65.81742            68.80634            70.01491            70.07962            69.57007            68.84900            68.16447            67.58665            67.10922            68.69729            54.77089            42.74301            37.11040            36.87538            40.70333            47.27373            54.93372            61.90335            66.95592            69.75870            70.74190            70.63181            69.98012            69.14646            68.37481            67.75082            67.24382            63.77074            53.01501            42.05735            36.69596            36.73935            40.97580            47.96014            55.92395            63.08043            68.10795            70.69213            71.45937            71.16474            70.35482            69.43933            68.60793            67.93108            67.40258            62.06288            52.91194            42.11776            36.58220            36.72656            41.23142            48.57658            56.87978            64.14667            69.08542            71.53799            72.13205            71.66464            70.73756            69.70963            68.80449            68.08563            67.51709            74.64215            57.57416            43.37021            36.77804            36.75336            41.44107            49.11885            57.69328            65.05367            69.95798            72.28908            72.68758            72.05617            71.03347            69.95438            68.99539            68.21024            67.58152            81.08212            61.63681            44.52515            36.93094            36.74232            41.60640            49.50752            58.26897            65.78698            70.70001            72.90223            73.17359            72.37350            71.21801            70.09753            69.12031            68.30223            67.67229            84.85662            62.82057            44.52444            36.75423            36.66611            41.67729            49.77018            58.72125            66.31790            71.21789            73.39160            73.56202            72.63755            71.37926            70.19631            69.17421            68.36678            67.73598            83.49415            59.75933            43.50583            36.49184            36.60413            41.72008            49.97363            59.04304            66.65074            71.57102            73.69143            73.72588            72.73014            71.45931            70.23358            69.21454            68.38826            67.76121            54.18490            52.22240            42.41430            36.48630            36.68959            41.85354            50.15792            59.24394            66.87645            71.73654            73.73775            73.75022            72.77373            71.45214            70.19667            69.14416            68.32196            67.75241            57.59932            53.46516            43.63118            37.20514            37.12346            42.13196            50.33763            59.41663            67.01802            71.74691            73.68151            73.73058            72.75430            71.41788            70.10007            68.98770            68.21467            67.65994            70.23363            60.13696            46.45799            38.55705            37.84835            42.52808            50.52198            59.49247            67.01737            71.68813            73.59304            73.56137            72.56575            71.24196            69.89432            68.82853            68.07048            67.55022            86.17171            66.64410            49.13433            40.00673            38.649