# vtk DataFile Version 3.0
Output from R2
ASCII
DATASET UNSTRUCTURED_GRID
POINTS      10575 double
  -227.77000     0.00000   0.
  -227.77000    -0.20000   0.
  -227.77000    -0.41000   0.
  -227.77000    -0.64000   0.
  -227.77000    -0.89000   0.
  -227.77000    -1.15000   0.
  -227.77000    -1.43000   0.
  -227.77000    -1.73000   0.
  -227.77000    -2.05000   0.
  -227.77000    -2.40000   0.
  -227.77000    -2.76000   0.
  -227.77000    -3.16000   0.
  -227.77000    -3.58000   0.
  -227.77000    -4.03000   0.
  -227.77000    -4.51000   0.
  -227.77000    -5.03000   0.
  -227.77000    -5.58000   0.
  -227.77000    -6.17000   0.
  -227.77000    -6.80000   0.
  -227.77000    -7.48000   0.
  -227.77000    -8.20000   0.
  -227.77000    -8.97000   0.
  -227.77000    -9.80000   0.
  -227.77000   -10.69000   0.
  -227.77000   -11.64000   0.
  -227.77000   -12.65000   0.
  -227.77000   -13.74000   0.
  -227.77000   -14.90000   0.
  -227.77000   -16.14000   0.
  -227.77000   -17.47000   0.
  -227.77000   -18.89000   0.
  -227.77000   -20.41000   0.
  -227.77000   -22.04000   0.
  -227.77000   -23.79000   0.
  -227.77000   -25.65000   0.
  -227.77000   -27.65000   0.
  -227.77000   -29.78000   0.
  -227.77000   -32.07000   0.
  -227.77000   -34.51000   0.
  -227.77000   -38.18000   0.
  -227.77000   -43.68000   0.
  -227.77000   -51.93000   0.
  -227.77000   -64.31000   0.
  -227.77000   -82.87000   0.
  -227.77000  -110.72000   0.
  -227.77000  -152.49000   0.
  -227.77000  -215.14000   0.
  -121.62000     0.00000   0.
  -121.62000    -0.20000   0.
  -121.62000    -0.41000   0.
  -121.62000    -0.64000   0.
  -121.62000    -0.89000   0.
  -121.62000    -1.15000   0.
  -121.62000    -1.43000   0.
  -121.62000    -1.73000   0.
  -121.62000    -2.05000   0.
  -121.62000    -2.40000   0.
  -121.62000    -2.76000   0.
  -121.62000    -3.16000   0.
  -121.62000    -3.58000   0.
  -121.62000    -4.03000   0.
  -121.62000    -4.51000   0.
  -121.62000    -5.03000   0.
  -121.62000    -5.58000   0.
  -121.62000    -6.17000   0.
  -121.62000    -6.80000   0.
  -121.62000    -7.48000   0.
  -121.62000    -8.20000   0.
  -121.62000    -8.97000   0.
  -121.62000    -9.80000   0.
  -121.62000   -10.69000   0.
  -121.62000   -11.64000   0.
  -121.62000   -12.65000   0.
  -121.62000   -13.74000   0.
  -121.62000   -14.90000   0.
  -121.62000   -16.14000   0.
  -121.62000   -17.47000   0.
  -121.62000   -18.89000   0.
  -121.62000   -20.41000   0.
  -121.62000   -22.04000   0.
  -121.62000   -23.79000   0.
  -121.62000   -25.65000   0.
  -121.62000   -27.65000   0.
  -121.62000   -29.78000   0.
  -121.62000   -32.07000   0.
  -121.62000   -34.51000   0.
  -121.62000   -38.18000   0.
  -121.62000   -43.68000   0.
  -121.62000   -51.93000   0.
  -121.62000   -64.31000   0.
  -121.62000   -82.87000   0.
  -121.62000  -110.72000   0.
  -121.62000  -152.49000   0.
  -121.62000  -215.14000   0.
   -65.75000     0.00000   0.
   -65.75000    -0.20000   0.
   -65.75000    -0.41000   0.
   -65.75000    -0.64000   0.
   -65.75000    -0.89000   0.
   -65.75000    -1.15000   0.
   -65.75000    -1.43000   0.
   -65.75000    -1.73000   0.
   -65.75000    -2.05000   0.
   -65.75000    -2.40000   0.
   -65.75000    -2.76000   0.
   -65.75000    -3.16000   0.
   -65.75000    -3.58000   0.
   -65.75000    -4.03000   0.
   -65.75000    -4.51000   0.
   -65.75000    -5.03000   0.
   -65.75000    -5.58000   0.
   -65.75000    -6.17000   0.
   -65.75000    -6.80000   0.
   -65.75000    -7.48000   0.
   -65.75000    -8.20000   0.
   -65.75000    -8.97000   0.
   -65.75000    -9.80000   0.
   -65.75000   -10.69000   0.
   -65.75000   -11.64000   0.
   -65.75000   -12.65000   0.
   -65.75000   -13.74000   0.
   -65.75000   -14.90000   0.
   -65.75000   -16.14000   0.
   -65.75000   -17.47000   0.
   -65.75000   -18.89000   0.
   -65.75000   -20.41000   0.
   -65.75000   -22.04000   0.
   -65.75000   -23.79000   0.
   -65.75000   -25.65000   0.
   -65.75000   -27.65000   0.
   -65.75000   -29.78000   0.
   -65.75000   -32.07000   0.
   -65.75000   -34.51000   0.
   -65.75000   -38.18000   0.
   -65.75000   -43.68000   0.
   -65.75000   -51.93000   0.
   -65.75000   -64.31000   0.
   -65.75000   -82.87000   0.
   -65.75000  -110.72000   0.
   -65.75000  -152.49000   0.
   -65.75000  -215.14000   0.
   -36.35000     0.00000   0.
   -36.35000    -0.20000   0.
   -36.35000    -0.41000   0.
   -36.35000    -0.64000   0.
   -36.35000    -0.89000   0.
   -36.35000    -1.15000   0.
   -36.35000    -1.43000   0.
   -36.35000    -1.73000   0.
   -36.35000    -2.05000   0.
   -36.35000    -2.40000   0.
   -36.35000    -2.76000   0.
   -36.35000    -3.16000   0.
   -36.35000    -3.58000   0.
   -36.35000    -4.03000   0.
   -36.35000    -4.51000   0.
   -36.35000    -5.03000   0.
   -36.35000    -5.58000   0.
   -36.35000    -6.17000   0.
   -36.35000    -6.80000   0.
   -36.35000    -7.48000   0.
   -36.35000    -8.20000   0.
   -36.35000    -8.97000   0.
   -36.35000    -9.80000   0.
   -36.35000   -10.69000   0.
   -36.35000   -11.64000   0.
   -36.35000   -12.65000   0.
   -36.35000   -13.74000   0.
   -36.35000   -14.90000   0.
   -36.35000   -16.14000   0.
   -36.35000   -17.47000   0.
   -36.35000   -18.89000   0.
   -36.35000   -20.41000   0.
   -36.35000   -22.04000   0.
   -36.35000   -23.79000   0.
   -36.35000   -25.65000   0.
   -36.35000   -27.65000   0.
   -36.35000   -29.78000   0.
   -36.35000   -32.07000   0.
   -36.35000   -34.51000   0.
   -36.35000   -38.18000   0.
   -36.35000   -43.68000   0.
   -36.35000   -51.93000   0.
   -36.35000   -64.31000   0.
   -36.35000   -82.87000   0.
   -36.35000  -110.72000   0.
   -36.35000  -152.49000   0.
   -36.35000  -215.14000   0.
   -20.88000     0.00000   0.
   -20.88000    -0.20000   0.
   -20.88000    -0.41000   0.
   -20.88000    -0.64000   0.
   -20.88000    -0.89000   0.
   -20.88000    -1.15000   0.
   -20.88000    -1.43000   0.
   -20.88000    -1.73000   0.
   -20.88000    -2.05000   0.
   -20.88000    -2.40000   0.
   -20.88000    -2.76000   0.
   -20.88000    -3.16000   0.
   -20.88000    -3.58000   0.
   -20.88000    -4.03000   0.
   -20.88000    -4.51000   0.
   -20.88000    -5.03000   0.
   -20.88000    -5.58000   0.
   -20.88000    -6.17000   0.
   -20.88000    -6.80000   0.
   -20.88000    -7.48000   0.
   -20.88000    -8.20000   0.
   -20.88000    -8.97000   0.
   -20.88000    -9.80000   0.
   -20.88000   -10.69000   0.
   -20.88000   -11.64000   0.
   -20.88000   -12.65000   0.
   -20.88000   -13.74000   0.
   -20.88000   -14.90000   0.
   -20.88000   -16.14000   0.
   -20.88000   -17.47000   0.
   -20.88000   -18.89000   0.
   -20.88000   -20.41000   0.
   -20.88000   -22.04000   0.
   -20.88000   -23.79000   0.
   -20.88000   -25.65000   0.
   -20.88000   -27.65000   0.
   -20.88000   -29.78000   0.
   -20.88000   -32.07000   0.
   -20.88000   -34.51000   0.
   -20.88000   -38.18000   0.
   -20.88000   -43.68000   0.
   -20.88000   -51.93000   0.
   -20.88000   -64.31000   0.
   -20.88000   -82.87000   0.
   -20.88000  -110.72000   0.
   -20.88000  -152.49000   0.
   -20.88000  -215.14000   0.
   -12.73000     0.00000   0.
   -12.73000    -0.20000   0.
   -12.73000    -0.41000   0.
   -12.73000    -0.64000   0.
   -12.73000    -0.89000   0.
   -12.73000    -1.15000   0.
   -12.73000    -1.43000   0.
   -12.73000    -1.73000   0.
   -12.73000    -2.05000   0.
   -12.73000    -2.40000   0.
   -12.73000    -2.76000   0.
   -12.73000    -3.16000   0.
   -12.73000    -3.58000   0.
   -12.73000    -4.03000   0.
   -12.73000    -4.51000   0.
   -12.73000    -5.03000   0.
   -12.73000    -5.58000   0.
   -12.73000    -6.17000   0.
   -12.73000    -6.80000   0.
   -12.73000    -7.48000   0.
   -12.73000    -8.20000   0.
   -12.73000    -8.97000   0.
   -12.73000    -9.80000   0.
   -12.73000   -10.69000   0.
   -12.73000   -11.64000   0.
   -12.73000   -12.65000   0.
   -12.73000   -13.74000   0.
   -12.73000   -14.90000   0.
   -12.73000   -16.14000   0.
   -12.73000   -17.47000   0.
   -12.73000   -18.89000   0.
   -12.73000   -20.41000   0.
   -12.73000   -22.04000   0.
   -12.73000   -23.79000   0.
   -12.73000   -25.65000   0.
   -12.73000   -27.65000   0.
   -12.73000   -29.78000   0.
   -12.73000   -32.07000   0.
   -12.73000   -34.51000   0.
   -12.73000   -38.18000   0.
   -12.73000   -43.68000   0.
   -12.73000   -51.93000   0.
   -12.73000   -64.31000   0.
   -12.73000   -82.87000   0.
   -12.73000  -110.72000   0.
   -12.73000  -152.49000   0.
   -12.73000  -215.14000   0.
    -8.44000     0.00000   0.
    -8.44000    -0.20000   0.
    -8.44000    -0.41000   0.
    -8.44000    -0.64000   0.
    -8.44000    -0.89000   0.
    -8.44000    -1.15000   0.
    -8.44000    -1.43000   0.
    -8.44000    -1.73000   0.
    -8.44000    -2.05000   0.
    -8.44000    -2.40000   0.
    -8.44000    -2.76000   0.
    -8.44000    -3.16000   0.
    -8.44000    -3.58000   0.
    -8.44000    -4.03000   0.
    -8.44000    -4.51000   0.
    -8.44000    -5.03000   0.
    -8.44000    -5.58000   0.
    -8.44000    -6.17000   0.
    -8.44000    -6.80000   0.
    -8.44000    -7.48000   0.
    -8.44000    -8.20000   0.
    -8.44000    -8.97000   0.
    -8.44000    -9.80000   0.
    -8.44000   -10.69000   0.
    -8.44000   -11.64000   0.
    -8.44000   -12.65000   0.
    -8.44000   -13.74000   0.
    -8.44000   -14.90000   0.
    -8.44000   -16.14000   0.
    -8.44000   -17.47000   0.
    -8.44000   -18.89000   0.
    -8.44000   -20.41000   0.
    -8.44000   -22.04000   0.
    -8.44000   -23.79000   0.
    -8.44000   -25.65000   0.
    -8.44000   -27.65000   0.
    -8.44000   -29.78000   0.
[...]
POINT_DATA     10575
CELL_DATA     10304
SCALARS Resistivity(ohm.m) double 1
LOOKUP_TABLE default
           100.00000           100.00000           100.00000           100.00000           100.00000           100.00000           100.00000           100.00000           200.00000           200.00000           200.00000           200.00000           200.00000           200.00000           200.00000           200.00000           200.00000           200.00000           200.00000           200.00000           200.00000           200.00000           200.00000           200.00000           200.00000           200.00000           200.00000           200.00000           200.00000           200.00000           200.00000           200.00000           200.00000           200.00000           200.00000           200.00000           200.00000           200.00000           200.00000           200.00000           200.00000           200.00000           200.00000           200.00000           200.00000           200.00000           100.00000           100.00000           100.00000           100.00000           100.00000           100.00000           100.00000           100.00000           200.00000           200.00000           200.00000           200.00000           200.00000           200.00000           200.00000           200.00000           200.00000           200.00000           200.00000           200.00000           200.00000           200.00000           200.00000           200.00000           200.00000           200.00000           200.00000           200.00000           200.00000           200.00000           200.00000           200.00000           200.00000           200.00000           200.00000           200.00000           200.00000           200.00000           200.00000           200.00000           200.00000           200.00000           200.00000           200.00000           200.00000           200.00000           100.00000           100.00000           100.00000           100.00000           100.00000           100.00000           100.00000           100.00000           200.00000           200.00000           200.00000           200.00000           200.00000           200.00000           200.00000           200.00000           200.00000           200.00000           200.00000           200.00000           200.00000           200.00000           200.00000           200.00000           200.00000           200.00000           200.00000           200.00000           200.00000           200.00000           200.00000           200.00000           200.00000           200.00000           200.00000           200.00000           200.00000           200.00000           200.00000           200.00000           200.00000           200.00000           200.00000           200.00000           200.00000           200.00000           100.00000           100.00000           100.00000           100.00000           100.00000           100.00000           100.00000           100.00000           200.00000           200.00000           200.00000           200.00000           200.00000           200.00000           200.00000           200.00000           200.00000           200.00000           200.00000           200.00000           200.00000           200.00000           200.00000           200.00000           200.00000           200.00000           200.00000           200.00000           200.00000           200.00000           200.00000           200.00000           200.00000           200.00000           200.00000           200.00000           200.00000           200.00000           200.00000           200.00000           200.00000           200.00000           200.00000           200.00000           200.00000           200.00000           100.00000           100.00000           100.00000           100.00000           100.00000           100.00000           100.00000           100.00000           200.00000           200.00000           200.00000           200.00000           200.00000           200.00000           200.00000           200.00000           200.00000           200.00000           200.00000           200.00000           200.00000           200.00000           200.00000           200.00000           200.00000           200.00000           200.00000           200.00000           200.00000           200.00000           200.00000           200.00000           200.00000           200.00000           200.00000           200.00000           200.00000           200.00000           200.00000           200.00000           200.00000           200.00000           200.00000           200.00000           200.00000           200.00000           100.00000           100.00000           100.00000           100.00000           100.00000           100.00000           100.00000           100.00000           200.00000           200.00000           200.00000           200.00000           200.00000           200.00000           200.00000           200.00000           200.00000           200.00000           200.00000           200.00000           200.00000           200.00000           200.00000           200.00000           200.00000           200.00000           200.00000           200.00000           200.00000           200.00000           200.00000           200.00000           200.00000           200.00000           200.00000           200.00000           200.00000           200.00000           200.00000           200.00000           200.00000           200.00000           200.00000           200.00000           200.00000           200.00000           100.00000           100.00000           100.00000           100.00000           100.00000           100.00000           100.00000           100.00000           200.00000           200.00000           200.00000           200.00000           200.00000           200.00000           200.00000           200.00000           200.00000           200.00000           200.00000           200.00000           200.00000           200.00000           200.00000           200.00000           200.00000           200.00000           200.00000           200.00000           200.00000           200.00000           200.00000           200.00000           200.00000           200.00000           200.00000           200.00000           200.00000           200.00000           200.00000           200.00000           200.00000           200.00000           200.00000           200.00000           200.00000           200.00000           100.00000           100.00000           100.00000           100.00000           100.00000           100.00000           100.00000           100.00000           200.00000           200.00000           200.00000           200.00000           200.00000           200.00000           200.00000           200.00000           200.00000           200.00000           200.00000           200.00000           200.00000           200.00000           200.00000           200.00000           200.00000           200.00000           200.00000           200.00000           200.00000           200.00000           200.00000           200.00000           200.00000           200.00000           200.00000           200.00000           200.00000           200.00000           200.00000           200.00000           200.00000           200.00000           200.00000           200.00000           200.00000           200.00000           100.00000           100.00000           100.00000           100.00000           100.00000           100.00000           100.00000           100.00000           200.00000           200.00000           200.00000           200.00000           200.00000           200.00000           200.00000           200.00000           200.00000           200.00000           200.00000           200.00000           200.00000           200.00000           200.00000           200.00000           200.00000           200.00000           200.00000           200.00000           200.00000           200.00000           200.00000           200.00000           200.00000           200.00000           200.00000           200.00000           200.00000           200.00000           200.00000           200.00000           200.00000           200.00000           200.00000           200.00000           200.00000           200.00000           100.00000           100.00000           100.00000           100.00000           100.00000           100.00000           100.00000           100.00000           200.00000           200.00000           200.00000           200.00000           200.00000           200.00000           200.00000           200.00000           200.00000           200.00000           200.00000           200.00000           200.00000           200.00000           200.00000           200.00000           200.00000           200.00000           200.00000           200.00000           200.00000           200.00000           200.00000           200.00000           200.00000           200.00000           200.00000           200.00000           200.00000           200.00000           200.00000           200.00000           200.00000           200.00000           200.00000           200.00000           200.00000           200.00000           100.00000           100.00000           100.00000           100.00000           100.00000           100.00000           100.00000           100.00000           200.00000           200.00000           200.00000           200.00000           200.00000           200.00000           200.00000           200.00000           200.00000           200.00000           200.00000           200.00000           200.00000           200.00000           200.00000           200.00000           200.00000           200.00000           200.00000           200.00000           200.00000           200.00000           200.00000           200.00000           200.00000           200.00000           200.00000           200.00000           200.00000           200.00000           200.00000           200.00000           200.00000           200.00000           200.00000           200.00000           200.00000           200.00000           100.00000           100.00000           100.00000           100.00000           100.00000           100.00000           100.00000           100.00000           200.00000           200.00000           200.00000           200.00000           200.00000           200.00000           200.00000           200.00000           200.00000           200.00000           200.00000           200.00000           200.00000           200.00000           200.00000           200.00000           200.00000           200.00000           200.00000           200.00000           200.00000           200.00000           200.00000           200.00000           200.00000           200.00000           200.00000           200.00000           200.00000           200.00000           200.00000           200.00000           200.00000           200.00000           200.00000           200.00000           200.00000           200.00000           100.00000           100.00000           100.00000           100.00000           100.00000           100.00000           100.00000           100.00000           200.00000           200.00000           200.00000           200.00000           200.00000           200.00000           200.00000           200.00000           200.00000           200.00000           200.00000           200.00000           200.00000           200.00000           200.00000           200.00000           200.00000           200.00000           200.00000           200.00000           200.00000           200.00000           200.00000           200.00000           200.00000           200.00000           200.00000           200.00000           200.00000           200.00000           200.00000           200.00000           200.00000           200.00000           200.00000           200.00000           200.00000           200.00000           100.00000           100.00000           100.00000           100.00000           100.00000           100.00000           100.00000           100.00000           200.00000           200.00000           200.00000           200.00000           200.00000           200.00000           200.00000           200.00000           200.00000           200.00000           200.00000           200.00000           200.00000           200.00000           200.00000           200.00000           200.00000           200.00000           200.00000           200.00000           200.00000           200.00000           200.00000           200.00000           200.00000           200.00000           200.00000           200.00000           200.00000           200.00000           200.00000           200.00000           200.00000           200.00000           200.00000           200.00000           200.00000           200.00000           100.00000           100.00000           100.00000           100.00000           100.00000           100.00000           100.00000           100.00000           200.00000           200.00000           200.00000           200.00000           200.00000           200.00000           200.00000           200.00000           200.00000           200.00000           200.00000           200.00000           200.00000           200.00000           200.00000           200.00000           200.00000           200.00000           200.00000           200.00000           200.00000           200.00000           200.00000           200.00000           200.00000           200.00000           200.00000           200.00000           200.00000           200.00000           200.00000           200.00000           200.00000           200.00000           200.00000           200.00000           200.00000           200.00000           100.00000           100.00000           100.00000           100.00000           100.00000           100.00000           100.00000           100.00000           200.00000           200.00000           200.00000           200.00000           200.00000           200.00000           200.00000           200.00000           200.00000           200.00000           200.00000           200.00000           200.00000           200.00000           200.00000           200.00000           200.00000           200.00000           200.00000           200.00000           200.00000           200.00000           200.00000           200.00000           200.00000           200.00000           200.00000           200.00000           200.00000           200.00000           200.00000           200.00000           200.00000           200.00000           200.00000           200.00000           200.00000           200.00000           100.00000           100.00000           100.00000           100.00000           100.00000           100.00000           100.00000           100.00000           200.00000           200.00000           200.00000           200.00000           200.00000           200.00000           200.00000           200.00000           200.00000           200.00000           200.00000           200.00000           200.00000           200.00000           200.00000           200.00000           200.00000           200.00000           200.00000           200.00000           200.00000           200.00000           200.00000           200.00000           200.00000           200.00000           200.00000           200.00000           200.00000           200.00000           200.00000           200.00000           200.00000           200.00000           200.00000           200.00000           200.00000           200.00000           100.00000           100.00000           100.00000           100.00000           100.00000           100.00000           100.00000           100.00000           200.00000           200.00000           200.00000           200.00000           200.00000           200.00000           200.00000           200.00000           200.00000           200.00000           200.00000           200.00000           200.00000           200.00000           200.00000           200.00000           200.00000           200.00000           200.00000           200.00000           200.00000           200.00000           200.00000           200.00000           200.00000           200.00000           200.00000           200.00000           200.00000           200.00000           200.00000           200.00000           200.00000           200.00000           200.00000           200.00000           200.00000           200.00000           100.00000           100.00000           100.00000           100.00000           100.00000           100.00000           100.00000           100.00000           200.00000           200.00000           200.00000           200.00000           200.00000           200.00000           200.00000           200.00000           200.00000           200.00000           200.00000           200.00000           200.00000           200.00000           200.00000           200.00000           200.00000           200.00000           200.00000           200.00000           200.00000           200.00000           200.00000           200.00000           200.00000           200.00000           200.00000           200.00000           200.00000           200.00000           200.00000           200.00000           200.00000           200.00000           200.00000           200.00000           200.00000           200.00000           100.00000           100.00000           100.00000           100.00000           100.00000           100.00000           100.00000           100.00000           200.00000           200.00000           200.00000           200.00000           200.00000           200.00000           200.00000           200.00000           200.00000           200.00000           200.00000           200.00000           200.00000           200.00000           200.00000           200.00000           200.00000           200.00000           200.00000           200.00000           200.00000           200.00000           200.00000           200.00000           200.00000           200.00000           200.00000           200.00000           200.00000           200.00000           200.00000           200.00000           200.00000           200.00000           200.00000           200.00000           200.00000           200.00000           100.00000           100.00000           100.00000           100.00000           100.00000           100.00000           100.00000           100.00000           200.00000           200.00000           200.00000           200.00000           200.00000           200.00000           200.00000           200.00000           200.00000           200.00000           200.00000           200.00000           200.00000           200.00000           200.00000           200.00000           200.00000           200.00000           200.00000           200.00000           200.00000           200.00000           200.00000           200.00000           200.00000           200.00000           200.00000           200.00000           200.00000           200.00000           200.00000           200.00000           200.00000           200.00000           200.00000           200.00000           200.00000           200.00000           100.00000           100.00000           100.00000           100.00000           100.00000           100.00000           100.00000           100.00000           200.00000           200.00000           200.00000           200.00000           200.00000           200.00000           200.00000           200.00000           200.00000           200.00000           200.00000           200.00000           200.00000           200.00000           200.00000           200.00000           200.00000           200.00000           200.00000           200.00000           200.000