# vtk DataFile Version 3.0
Output from R3t
ASCII
DATASET UNSTRUCTURED_GRID
POINTS        674 double
    0.00000E+00   -0.10000E+01    0.00000E+00
    0.10000E+01   -0.10000E+01    0.00000E+00
    0.20000E+01   -0.10000E+01    0.00000E+00
    0.30000E+01   -0.10000E+01    0.00000E+00
    0.40000E+01   -0.10000E+01    0.00000E+00
    0.50000E+01   -0.10000E+01    0.00000E+00
    0.60000E+01   -0.10000E+01    0.00000E+00
    0.70000E+01   -0.10000E+01    0.00000E+00
    0.80000E+01   -0.10000E+01    0.00000E+00
    0.90000E+01   -0.10000E+01    0.00000E+00
    0.10000E+02   -0.10000E+01    0.00000E+00
    0.11000E+02   -0.10000E+01    0.00000E+00
    0.12000E+02   -0.10000E+01    0.00000E+00
    0.13000E+02   -0.10000E+01    0.00000E+00
    0.14000E+02   -0.10000E+01    0.00000E+00
    0.15000E+02   -0.10000E+01    0.00000E+00
    0.16000E+02   -0.10000E+01    0.00000E+00
    0.17000E+02   -0.10000E+01    0.00000E+00
    0.18000E+02   -0.10000E+01    0.00000E+00
    0.19000E+02   -0.10000E+01    0.00000E+00
    0.20000E+02   -0.10000E+01    0.00000E+00
    0.21000E+02   -0.10000E+01    0.00000E+00
    0.22000E+02   -0.10000E+01    0.00000E+00
    0.23000E+02   -0.10000E+01    0.00000E+00
    0.00000E+00    0.00000E+00    0.00000E+00
    0.10000E+01    0.00000E+00    0.00000E+00
    0.20000E+01    0.00000E+00    0.00000E+00
    0.30000E+01    0.00000E+00    0.00000E+00
    0.40000E+01    0.00000E+00    0.00000E+00
    0.50000E+01    0.00000E+00    0.00000E+00
    0.60000E+01    0.00000E+00    0.00000E+00
    0.70000E+01    0.00000E+00    0.00000E+00
    0.80000E+01    0.00000E+00    0.00000E+00
    0.90000E+01    0.00000E+00    0.00000E+00
    0.10000E+02    0.00000E+00    0.00000E+00
    0.11000E+02    0.00000E+00    0.00000E+00
    0.12000E+02    0.00000E+00    0.00000E+00
    0.13000E+02    0.00000E+00    0.00000E+00
    0.14000E+02    0.00000E+00    0.00000E+00
    0.15000E+02    0.00000E+00    0.00000E+00
    0.16000E+02    0.00000E+00    0.00000E+00
    0.17000E+02    0.00000E+00    0.00000E+00
    0.18000E+02    0.00000E+00    0.00000E+00
    0.19000E+02    0.00000E+00    0.00000E+00
    0.20000E+02    0.00000E+00    0.00000E+00
    0.21000E+02    0.00000E+00    0.00000E+00
    0.22000E+02    0.00000E+00    0.00000E+00
    0.23000E+02    0.00000E+00    0.00000E+00
    0.00000E+00    0.10000E+01    0.00000E+00
    0.10000E+01    0.10000E+01    0.00000E+00
    0.20000E+01    0.10000E+01    0.00000E+00
    0.30000E+01    0.10000E+01    0.00000E+00
    0.40000E+01    0.10000E+01    0.00000E+00
    0.50000E+01    0.10000E+01    0.00000E+00
    0.60000E+01    0.10000E+01    0.00000E+00
    0.70000E+01    0.10000E+01    0.00000E+00
    0.80000E+01    0.10000E+01    0.00000E+00
    0.90000E+01    0.10000E+01    0.00000E+00
    0.10000E+02    0.10000E+01    0.00000E+00
    0.11000E+02    0.10000E+01    0.00000E+00
    0.12000E+02    0.10000E+01    0.00000E+00
    0.13000E+02    0.10000E+01    0.00000E+00
    0.14000E+02    0.10000E+01    0.00000E+00
    0.15000E+02    0.10000E+01    0.00000E+00
    0.16000E+02    0.10000E+01    0.00000E+00
    0.17000E+02    0.10000E+01    0.00000E+00
    0.18000E+02    0.10000E+01    0.00000E+00
    0.19000E+02    0.10000E+01    0.00000E+00
    0.20000E+02    0.10000E+01    0.00000E+00
    0.21000E+02    0.10000E+01    0.00000E+00
    0.22000E+02    0.10000E+01    0.00000E+00
    0.23000E+02    0.10000E+01    0.00000E+00
    0.11500E+02   -0.11850E+01    0.00000E+00
    0.11500E+02    0.11850E+01    0.00000E+00
    0.10368E+02    0.10550E+01    0.00000E+00
    0.12632E+02   -0.10550E+01    0.00000E+00
    0.10368E+02   -0.10550E+01    0.00000E+00
    0.12632E+02    0.10550E+01    0.00000E+00
    0.93680E+01    0.98700E+00    0.00000E+00
    0.13632E+02   -0.98700E+00    0.00000E+00
    0.93680E+01   -0.98700E+00    0.00000E+00
    0.13632E+02    0.98700E+00    0.00000E+00
    0.84430E+01    0.94600E+00    0.00000E+00
    0.14557E+02   -0.94600E+00    0.00000E+00
    0.84430E+01   -0.94600E+00    0.00000E+00
    0.14557E+02    0.94600E+00    0.00000E+00
    0.74560E+01    0.95000E+00    0.00000E+00
    0.15544E+02   -0.95000E+00    0.00000E+00
    0.74560E+01   -0.95000E+00    0.00000E+00
    0.15544E+02    0.95000E+00    0.00000E+00
    0.64790E+01    0.10330E+01    0.00000E+00
    0.16521E+02   -0.10330E+01    0.00000E+00
    0.64790E+01   -0.10330E+01    0.00000E+00
    0.16521E+02    0.10330E+01    0.00000E+00
    0.17463E+02   -0.96200E+00    0.00000E+00
    0.55370E+01    0.96200E+00    0.00000E+00
    0.55370E+01   -0.96200E+00    0.00000E+00
    0.17463E+02    0.96200E+00    0.00000E+00
    0.18510E+02   -0.97000E+00    0.00000E+00
    0.44900E+01    0.97000E+00    0.00000E+00
    0.44900E+01   -0.97000E+00    0.00000E+00
    0.18510E+02    0.97000E+00    0.00000E+00
    0.11509E+02   -0.46700E+00    0.00000E+00
    0.11491E+02    0.46700E+00    0.00000E+00
    0.19500E+02   -0.50000E+00    0.00000E+00
    0.35000E+01    0.50000E+00    0.00000E+00
    0.35000E+01   -0.50000E+00    0.00000E+00
    0.19500E+02    0.50000E+00    0.00000E+00
    0.20500E+02   -0.50000E+00    0.00000E+00
    0.25000E+01    0.50000E+00    0.00000E+00
    0.25000E+01   -0.50000E+00    0.00000E+00
    0.20500E+02    0.50000E+00    0.00000E+00
    0.10569E+02    0.50000E+00    0.00000E+00
    0.12431E+02   -0.50000E+00    0.00000E+00
    0.10525E+02   -0.45300E+00    0.00000E+00
    0.12475E+02    0.45300E+00    0.00000E+00
    0.21500E+02   -0.50000E+00    0.00000E+00
    0.15000E+01    0.50000E+00    0.00000E+00
    0.15000E+01   -0.50000E+00    0.00000E+00
    0.21500E+02    0.50000E+00    0.00000E+00
    0.22500E+02   -0.50000E+00    0.00000E+00
    0.50000E+00    0.50000E+00    0.00000E+00
    0.50000E+00   -0.50000E+00    0.00000E+00
    0.22500E+02    0.50000E+00    0.00000E+00
    0.96240E+01    0.60900E+00    0.00000E+00
    0.13376E+02   -0.60900E+00    0.00000E+00
    0.96240E+01   -0.60900E+00    0.00000E+00
    0.13376E+02    0.60900E+00    0.00000E+00
    0.86360E+01    0.50000E+00    0.00000E+00
    0.14364E+02   -0.50000E+00    0.00000E+00
    0.86360E+01   -0.50000E+00    0.00000E+00
    0.14364E+02    0.50000E+00    0.00000E+00
    0.76650E+01    0.50000E+00    0.00000E+00
    0.15335E+02   -0.50000E+00    0.00000E+00
    0.76650E+01   -0.50000E+00    0.00000E+00
    0.15335E+02    0.50000E+00    0.00000E+00
    0.19518E+02    0.10210E+01    0.00000E+00
    0.34820E+01   -0.10210E+01    0.00000E+00
    0.34820E+01    0.10210E+01    0.00000E+00
    0.19518E+02   -0.10210E+01    0.00000E+00
    0.66910E+01    0.50000E+00    0.00000E+00
    0.16309E+02   -0.50000E+00    0.00000E+00
    0.66910E+01   -0.50000E+00    0.00000E+00
    0.16309E+02    0.50000E+00    0.00000E+00
    0.18293E+02    0.11920E+01    0.00000E+00
    0.47070E+01   -0.11920E+01    0.00000E+00
    0.17285E+02   -0.50000E+00    0.00000E+00
    0.57150E+01    0.50000E+00    0.00000E+00
    0.57150E+01   -0.50000E+00    0.00000E+00
    0.17285E+02    0.50000E+00    0.00000E+00
    0.18264E+02   -0.50000E+00    0.00000E+00
    0.47360E+01    0.50000E+00    0.00000E+00
    0.47360E+01   -0.50000E+00    0.00000E+00
    0.18264E+02    0.50000E+00    0.00000E+00
    0.18822E+02    0.59400E+00    0.00000E+00
    0.41780E+01   -0.59400E+00    0.00000E+00
    0.41780E+01    0.59400E+00    0.00000E+00
    0.18822E+02   -0.59400E+00    0.00000E+00
    0.20501E+02   -0.10380E+01    0.00000E+00
    0.24990E+01    0.10380E+01    0.00000E+00
    0.24990E+01   -0.10380E+01    0.00000E+00
    0.20501E+02    0.10380E+01    0.00000E+00
    0.21561E+02   -0.97500E+00    0.00000E+00
    0.21561E+02    0.97500E+00    0.00000E+00
    0.14390E+01    0.97500E+00    0.00000E+00
    0.14390E+01   -0.97500E+00    0.00000E+00
    0.17802E+02    0.59200E+00    0.00000E+00
    0.51980E+01   -0.59200E+00    0.00000E+00
    0.51980E+01    0.59200E+00    0.00000E+00
    0.17802E+02   -0.59200E+00    0.00000E+00
    0.50500E+00    0.10580E+01    0.00000E+00
    0.22495E+02    0.10580E+01    0.00000E+00
    0.22495E+02   -0.10580E+01    0.00000E+00
    0.50500E+00   -0.10580E+01    0.00000E+00
    0.16823E+02    0.60700E+00    0.00000E+00
    0.61770E+01   -0.60700E+00    0.00000E+00
    0.16823E+02   -0.60700E+00    0.00000E+00
    0.61770E+01    0.60700E+00    0.00000E+00
    0.15337E+02   -0.11870E+01    0.00000E+00
    0.76630E+01    0.11870E+01    0.00000E+00
    0.15837E+02    0.59000E+00    0.00000E+00
    0.71630E+01   -0.59000E+00    0.00000E+00
    0.15837E+02   -0.59000E+00    0.00000E+00
    0.71630E+01    0.59000E+00    0.00000E+00
    0.14353E+02    0.11860E+01    0.00000E+00
    0.86470E+01   -0.11860E+01    0.00000E+00
    0.14851E+02    0.58900E+00    0.00000E+00
    0.81490E+01   -0.58900E+00    0.00000E+00
    0.14851E+02   -0.58900E+00    0.00000E+00
    0.81490E+01    0.58900E+00    0.00000E+00
    0.13874E+02    0.61900E+00    0.00000E+00
    0.91260E+01   -0.61900E+00    0.00000E+00
    0.13874E+02   -0.61900E+00    0.00000E+00
    0.91260E+01    0.61900E+00    0.00000E+00
    0.12913E+02    0.52500E+00    0.00000E+00
    0.10087E+02   -0.52500E+00    0.00000E+00
    0.12913E+02   -0.52500E+00    0.00000E+00
    0.10087E+02    0.52500E+00    0.00000E+00
    0.11990E+02    0.60200E+00    0.00000E+00
    0.11010E+02   -0.60200E+00    0.00000E+00
    0.13333E+02    0.11200E+01    0.00000E+00
    0.96670E+01   -0.11200E+01    0.00000E+00
    0.13333E+02   -0.11200E+01    0.00000E+00
    0.96670E+01    0.11200E+01    0.00000E+00
    0.10341E+02    0.78700E+00    0.00000E+00
    0.10680E+02    0.85600E+00    0.00000E+00
    0.12659E+02   -0.78700E+00    0.00000E+00
    0.12320E+02   -0.85600E+00    0.00000E+00
    0.10332E+02   -0.77800E+00    0.00000E+00
    0.10671E+02   -0.84900E+00    0.00000E+00
[...]
POINT_DATA       674
CELL_DATA      1362
SCALARS Magnitude double 1
LOOKUP_TABLE default
            64.43424            58.43066            30.16684            24.11704            59.53536            65.38852            42.80431            66.83513            34.65622            42.51149            79.60107            67.51281            27.31443            21.56086           113.94065           143.08582           109.65899           112.94705            24.69314           124.74269            24.31642            19.67555            32.51234            40.48774            20.51878            48.14539            36.88711            32.05756            89.59172            72.30396            32.72754            42.17805            43.38551            37.95995            21.25383            72.64435           125.04374            56.42336            47.58509            26.55142            19.10757            22.30483           139.59263            36.53216            71.64789            22.99825            31.39675           144.00358            98.88444            75.70739            42.09009            87.02221            68.31548            39.50941            48.05489           201.19125           238.40496           184.67660           135.75179            52.83193            93.64329            29.07953            36.23232            27.61477            19.66551            25.71347            28.35210            73.66218            88.53197            22.14903            26.93546           119.31896            97.98217            70.35309            87.79784            31.94328            28.06750           136.73368            30.81561            25.80910           129.58200            71.43913            83.52280            33.42663            28.83946            21.21787            28.45679            60.07055            42.25499           137.07603           117.42383           118.00559           130.36861            78.92644            92.29940            44.40456            78.91144            43.13182            67.20353           104.85691           100.53451           127.68824           106.61651           102.85751            52.93004            78.15125           102.16341            98.91003            36.53785            44.94161            50.94648            49.31877            71.54460            86.24121            94.02760            76.95889           103.25582            32.40709            65.55229           131.43828            77.95882            38.99076            48.99679            62.21986            29.77798            26.57859           110.39132           106.71969            22.09476            15.60463           286.99954           232.33982           126.11697            33.04165            28.51726            86.13787            70.97623           109.52586           105.59649            87.59419            82.34990            96.25902            69.01967           264.50744           223.93343           106.18204           110.32371            31.88177            30.11054            31.10769            76.73179            35.48941            30.24541            82.42799            96.37927            27.33137            36.63263            94.77944            90.85513            57.29696            81.33179            55.86704            80.05582           118.79176           117.58828            82.62451            81.13026            92.32800            91.31296           107.83949           103.03161           124.08540           126.89179            76.77322            73.15385            88.29419            55.87954            51.88895            76.54709           113.08423            77.39607           108.94950            29.25026            24.71211            14.51345            78.82383            65.81760            75.20097            59.60982            21.86592            18.74752            25.39934            28.82581            79.22262            92.32115           132.17503           128.97713           128.83101            25.01517            36.48511            60.77720            80.36082            73.96049            58.20278            82.66606            43.61449           221.41625           127.82312           127.97320            54.74013            79.39653            62.16014            81.27703           125.07448            66.93846            78.07699           100.47818           100.44581           128.77128            47.26647            30.10783            41.54857            38.75767            90.68150           112.96927            65.97776            59.11193            21.98837            30.43327            20.37475            12.57854            27.15269            23.87274            65.46454            17.93686            42.24477            52.75134            31.23912            53.61579            78.88359            95.60793            34.83378            55.35987            60.63281           123.53147            60.87117            59.19581           104.33560           101.18336           151.80287           258.97894            70.25372           193.39575            40.81595            53.33084           111.26153           110.83703           125.11007            99.42727            55.78866           114.53524           111.11832           123.37081           124.82488            47.12950            72.18993            78.47424            43.12452            64.33838            29.44863            92.62493            88.57481            74.03222            75.96412            59.29274            77.16562            87.26515            92.68309            28.33127           151.56275            92.85383            43.70560            59.76227            74.41108            64.79194            72.34955            86.17416           120.05681            34.35710            85.54081            99.52407           126.04089           125.91240            45.30023            26.46518            63.62036            32.78191            37.04304            87.48874            87.37295            79.29353            44.20205            24.89956           127.43466            97.33806            57.05229            58.43849            79.14121            21.28448            16.58246            49.44565            51.72997            79.31221           128.85434           131.94257            31.69933            23.23086            60.57907            93.87294            58.44769            80.01716            18.11889            34.76329            76.37713            44.62746           108.51559            42.22313           125.67985            70.72615            84.60018            47.05751            69.08384            69.04709            69.28706            53.98164            78.22956            29.37775            21.30789           117.92062           116.78546            80.25919            91.81534            29.82991            45.75121            74.41259            58.58772            31.57648            25.53823            50.88808            41.50954            33.47907            31.99419            98.54414            37.91300            40.21851            45.09616            65.68297            59.06326            94.08799            77.31948            23.97714            25.82922            83.59400            94.91483            74.29535            60.21068            50.34664            72.45322            56.21815            79.33472            41.75819            27.70063            27.34212            21.28959            26.04777            17.70934            34.44464            23.86046            24.89297            26.45898            70.05405            57.37173            84.30594            71.21536            98.97084           141.18663            70.45577            64.19482            76.66787            40.52321           124.73619           120.07268            42.44536            57.90899            19.90364            37.07657            49.35451            74.71498            93.22573           103.47785            72.79204            72.86221            82.31367            57.88665           132.70955            91.36818           103.67806            82.60622            33.97686            28.41439            32.86033            22.61473            22.10525            36.21731            42.15269            70.36958            63.34724            83.16032            32.15790            19.12529            76.77342            59.28365           118.60224           115.52165            61.20240            45.57854            80.95070            42.29659            73.45110            98.48274           103.20744            41.08345            71.01579            74.58679            27.89610            28.81218            96.13688           134.88267            87.71707            35.69223            81.83865            27.45421            26.44618            27.09962            36.91250            49.67953           107.29952            98.41454            77.63250            88.95766           107.98575            93.88277            60.53863            46.69112            57.29139            64.19645            70.67642            67.92771            28.31370            36.70331            69.25461            48.07325            50.44537            72.36555            89.63940            87.92026           110.23113           107.63212            72.62264            58.97622           112.14983           113.22491            31.70203            40.99825            20.53870            27.87882            34.97307            35.79955            39.15826            58.91890            95.38905            39.28878            82.50309           109.74907            65.86030            84.31444           105.67877           103.94851            25.28483            31.34133            45.63869            63.40967            73.21112           137.41797            96.07940           105.45066           115.49488           113.24448            75.44411            38.74645            31.77328            57.97424            44.18306            34.18454            32.41758            39.30482           140.75723            23.49149            25.69384            38.46880            34.00673            21.30246            26.38760            51.25112            75.10885            47.67448            45.33654            61.68400            37.48894            72.49337            56.30630            86.35038           120.41647           151.30833            52.18994            75.10052            35.99239            42.22240           105.23445            27.75191            87.23260            98.63325            94.53377            74.48034            90.05282            45.76384            35.42131           103.06713            99.49844            39.40385            32.11255            88.75692            35.81558            51.59364            41.91480            76.51922           113.55405            60.49318            81.81120            92.34723            36.99966            16.21968            21.64379            78.75827            59.78641            33.61038            32.06175            85.07223           139.19515            45.56958            29.04530           140.28010            21.85059            29.47067            78.66871            47.64187            96.86963            39.45005            39.51758            40.45893            88.80736            40.25769           124.53671           127.35333           139.66446            76.35943            50.25580           103.77916            29.58670            30.79298            44.46281            64.11599            84.76717            61.55457           121.20132            89.09039            66.20887            64.43913            28.58792           100.39786            73.45560            59.31552           103.76630           117.10419           194.78388            70.96951           100.05222            31.42978            34.11438           138.04278            33.06595            24.70653           102.53175           107.72268            43.52363            72.41594            69.26110            28.72212            42.38294            33.56917            31.95713            26.63620           123.28866            26.76919            32.43856            91.80423            54.25448            59.81673            51.21255            74.03008           118.98493           105.50262            90.78377           114.40784           101.09661           139.50786            23.97297            23.94035            71.21615            54.53993            92.21671           106.51873            75.98768           159.03327            88.32123            39.67118            68.05904            43.12489            47.66255            65.70705            56.91341            93.82665            39.58494            32.69308            42.90199            62.85163            60.35568            24.39543           119.26117           129.59698           112.12538            94.54612            29.54387            24.22909           132.17406            58.33430            46.96247            56.88201            21.92876            59.74419            67.89992           127.86763           126.24741            24.15549            81.09282           106.04588            75.99722            62.99190            87.61218           131.98071           138.55713           109.65627           111.14282            56.75971            80.13969            61.37078            66.82604           105.18402            97.80331           121.81332           118.59687            99.11218            29.08023            37.41318            24.32781            23.56876            77.19027           135.33713            39.05838            36.03079           111.73252           101.70024           138.86240            94.84885           105.07022            26.50224            90.88733            69.27552            25.98806            79.16775            59.29775            61.28913            74.96103            37.99412            50.48053            74.77062            59.88420            68.74510            73.21537            46.08550           128.63886            94.27554            74.33361            48.62547           109.23554            94.20124            25.05216            26.04059           152.20346            51.95976           105.94613            98.48861            27.19438            22.99928            67.55069            52.76314           107.64095           110.95132           193.35810            18.06425            23.24805           112.51766           113.53757            44.35300            33.53014            94.01482           104.40077            21.29052            26.57826            33.20875            30.11793            85.47431            99.42034           137.70887            92.69888            95.89500            90.60877            69.73950            28.99606            80.54773            43.28169            39.90945            88.86223            85.53520            64.53117            48.75538           113.43109           115.42902            85.87736           105.58487            62.37801            48.48707            28.02794            74.64269            57.20156            57.12875            81.72313           108.34767            49.42820           123.16102            40.43099            93.91217            60.34483            69.79156           123.91530            28.02420            54.05357            73.40815           143.11336           113.88630            78.83107            49.24686            23.32883            50.33770            71.37524            44.19936            83.36450            72.05673            65.12011           125.38368           127.90692            62.96373            85.58268            41.87681            29.11926            30.10924            64.34312           115.65625           113.81478           109.92062            98.36552           128.60000           130.13869           117.76678           116.72520           124.41956           126.31987            82.02218            34.94877            81.08967            42.23783            27.10309            45.33800            50.22252            42.44159           108.97457           119.03481           136.67020            52.21952            37.03150            81.73366           111.19655            93.65553            38.51083            72.40158            84.24548            38.00257            83.07352            18.47369            51.39334           135.47525           137.51580            43.04542            19.90015            33.77707            48.49852            71.68261            64.65847            64.96146            51.80441            71.47572            47.28947            86.07239            93.66888            65.60798            38.49714            67.26024           129.57793            50.56910            55.49672            77.10338           130.16300           132.75592            86.39145            75.91796            34.86625            57.77244           136.34890            40.34521            32.02443           136.19834           122.14011           117.09666            43.01094            62.07737            58.15832            82.52817            56.94178            72.05244            51.45676            34.74366            91.19704            84.41747            47.84364            84.79315            68.07638            73.99831           136.18180           126.99795           130.47926            82.12008            92.39429           112.09101            96.45803            68.84411            43.79204           137.19912           121.18017           127.33190            35.69639           105.40123            86.16870            44.61770            69.59969            62.03091            66.55678            80.46580           116.30690            45.40543            84.06097           101.30077           127.28705           114.91284           108.54007           122.20477            85.08053            86.13474           140.90336            29.68833           114.18123           115.74563            41.66958            74.27728           140.12969           106.86267            95.63314            47.52179            38.24675            93.86526            71.77760           120.58389           119.67606           114.92697           113.84843           162.05334            74.83980           132.78246           119.55945           116.48673            93.21099            81.67263            64.98643            38.70330            53.04746           129.49960           133.33213            68.20378            77.38690            95.84524            29.82792            29.04596            11.48987            29.94239            85.24754           106.68982            86.76842            50.31129            71.52684           253.74921           104.69496            85.46981            54.22024           177.59802            26.43647            27.96205            62.84088            86.59147            37.30639            46.60432            54.34985            79.92819            57.23782            88.32453           113.46156            63.35132            73.94211           190.39153            52.20508            49.23926            60.47284           129.95216           136.12260           121.36778           116.14900            72.22973           196.60713           136.08785            79.15559            27.22559            88.52316           102.42408            45.25805            58.77518            40.16816            70.96055            53.81335           119.10464           117.61517           135.34530            97.11302            53.55812            46.13206            97.07528            77.17066           134.69620       