# vtk DataFile Version 3.0
Output from R3t
ASCII
DATASET UNSTRUCTURED_GRID
POINTS       1754 double
      0.00000000E+00      0.00000000E+00      0.00000000E+00
      0.20000000E+01      0.00000000E+00      0.00000000E+00
      0.40000000E+01      0.00000000E+00      0.00000000E+00
      0.60000000E+01      0.00000000E+00      0.00000000E+00
      0.80000000E+01      0.00000000E+00      0.00000000E+00
      0.10000000E+02      0.00000000E+00      0.00000000E+00
      0.12000000E+02      0.00000000E+00      0.00000000E+00
      0.14000000E+02      0.00000000E+00      0.00000000E+00
      0.16000000E+02      0.00000000E+00      0.00000000E+00
      0.18000000E+02      0.00000000E+00      0.00000000E+00
      0.20000000E+02      0.00000000E+00      0.00000000E+00
      0.22000000E+02      0.00000000E+00      0.00000000E+00
      0.24000000E+02      0.00000000E+00      0.00000000E+00
      0.26000000E+02      0.00000000E+00      0.00000000E+00
      0.28000000E+02      0.00000000E+00      0.00000000E+00
      0.30000000E+02      0.00000000E+00      0.00000000E+00
      0.32000000E+02      0.00000000E+00      0.00000000E+00
      0.34000000E+02      0.00000000E+00      0.00000000E+00
      0.36000000E+02      0.00000000E+00      0.00000000E+00
      0.38000000E+02      0.00000000E+00      0.00000000E+00
      0.40000000E+02      0.00000000E+00      0.00000000E+00
      0.42000000E+02      0.00000000E+00      0.00000000E+00
      0.44000000E+02      0.00000000E+00      0.00000000E+00
      0.46000000E+02      0.00000000E+00      0.00000000E+00
      0.48000000E+02      0.00000000E+00      0.00000000E+00
      0.00000000E+00      0.50000000E+01      0.00000000E+00
      0.20000000E+01      0.50000000E+01      0.00000000E+00
      0.40000000E+01      0.50000000E+01      0.00000000E+00
      0.60000000E+01      0.50000000E+01      0.00000000E+00
      0.80000000E+01      0.50000000E+01      0.00000000E+00
      0.10000000E+02      0.50000000E+01      0.00000000E+00
      0.12000000E+02      0.50000000E+01      0.00000000E+00
      0.14000000E+02      0.50000000E+01      0.00000000E+00
      0.16000000E+02      0.50000000E+01      0.00000000E+00
      0.18000000E+02      0.50000000E+01      0.00000000E+00
      0.20000000E+02      0.50000000E+01      0.00000000E+00
      0.22000000E+02      0.50000000E+01      0.00000000E+00
      0.24000000E+02      0.50000000E+01      0.00000000E+00
      0.26000000E+02      0.50000000E+01      0.00000000E+00
      0.28000000E+02      0.50000000E+01      0.00000000E+00
      0.30000000E+02      0.50000000E+01      0.00000000E+00
      0.32000000E+02      0.50000000E+01      0.00000000E+00
      0.34000000E+02      0.50000000E+01      0.00000000E+00
      0.36000000E+02      0.50000000E+01      0.00000000E+00
      0.38000000E+02      0.50000000E+01      0.00000000E+00
      0.40000000E+02      0.50000000E+01      0.00000000E+00
      0.42000000E+02      0.50000000E+01      0.00000000E+00
      0.44000000E+02      0.50000000E+01      0.00000000E+00
      0.46000000E+02      0.50000000E+01      0.00000000E+00
      0.48000000E+02      0.50000000E+01      0.00000000E+00
      0.00000000E+00     -0.50000000E+01      0.00000000E+00
      0.20000000E+01     -0.50000000E+01      0.00000000E+00
      0.40000000E+01     -0.50000000E+01      0.00000000E+00
      0.60000000E+01     -0.50000000E+01      0.00000000E+00
      0.80000000E+01     -0.50000000E+01      0.00000000E+00
      0.10000000E+02     -0.50000000E+01      0.00000000E+00
      0.12000000E+02     -0.50000000E+01      0.00000000E+00
      0.14000000E+02     -0.50000000E+01      0.00000000E+00
      0.16000000E+02     -0.50000000E+01      0.00000000E+00
      0.18000000E+02     -0.50000000E+01      0.00000000E+00
      0.20000000E+02     -0.50000000E+01      0.00000000E+00
      0.22000000E+02     -0.50000000E+01      0.00000000E+00
      0.24000000E+02     -0.50000000E+01      0.00000000E+00
      0.26000000E+02     -0.50000000E+01      0.00000000E+00
      0.28000000E+02     -0.50000000E+01      0.00000000E+00
      0.30000000E+02     -0.50000000E+01      0.00000000E+00
      0.32000000E+02     -0.50000000E+01      0.00000000E+00
      0.34000000E+02     -0.50000000E+01      0.00000000E+00
      0.36000000E+02     -0.50000000E+01      0.00000000E+00
      0.38000000E+02     -0.50000000E+01      0.00000000E+00
      0.40000000E+02     -0.50000000E+01      0.00000000E+00
      0.42000000E+02     -0.50000000E+01      0.00000000E+00
      0.44000000E+02     -0.50000000E+01      0.00000000E+00
      0.46000000E+02     -0.50000000E+01      0.00000000E+00
      0.48000000E+02     -0.50000000E+01      0.00000000E+00
      0.19642000E+02     -0.40000000E+00     -0.20000000E+02
      0.13256000E+02     -0.42100000E+00     -0.20000000E+02
      0.66240000E+01      0.11750000E+01     -0.20000000E+02
     -0.26190000E+01     -0.10080000E+01     -0.20000000E+02
      0.24618000E+02     -0.60600000E+00     -0.20000000E+02
      0.26460000E+02      0.44190000E+01     -0.20000000E+02
      0.28927000E+02     -0.51190000E+01     -0.20000000E+02
      0.37813000E+02      0.67190000E+01     -0.20000000E+02
      0.11537000E+02     -0.74820000E+01     -0.20000000E+02
      0.42663000E+02      0.72550000E+01     -0.20000000E+02
      0.16810000E+02     -0.58260000E+01     -0.20000000E+02
      0.22900000E+02     -0.67420000E+01     -0.20000000E+02
      0.31741000E+02      0.67060000E+01     -0.20000000E+02
      0.16192000E+02      0.47130000E+01     -0.20000000E+02
      0.46830000E+01     -0.79380000E+01     -0.20000000E+02
     -0.11140000E+01      0.48610000E+01     -0.20000000E+02
      0.43501000E+02     -0.69430000E+01     -0.20000000E+02
      0.10729000E+02      0.62840000E+01     -0.20000000E+02
      0.30504000E+02      0.73700000E+00     -0.20000000E+02
      0.40868000E+02      0.37870000E+01     -0.20000000E+02
      0.47155000E+02      0.78030000E+01     -0.20000000E+02
      0.48872000E+02      0.34670000E+01     -0.20000000E+02
      0.36811000E+02      0.13620000E+01     -0.20000000E+02
      0.16790000E+01      0.15100000E+01     -0.20000000E+02
      0.41460000E+01      0.70770000E+01     -0.20000000E+02
      0.74920000E+01     -0.38450000E+01     -0.20000000E+02
      0.21420000E+02      0.45380000E+01     -0.20000000E+02
      0.45134000E+02      0.28070000E+01     -0.20000000E+02
      0.27680000E+01     -0.28790000E+01     -0.20000000E+02
      0.47419000E+02     -0.14350000E+01     -0.20000000E+02
      0.38793000E+02     -0.34660000E+01     -0.20000000E+02
      0.42020000E+02     -0.76400000E+00     -0.20000000E+02
      0.34144000E+02     -0.42970000E+01     -0.20000000E+02
      0.91220000E+01      0.26550000E+01      0.00000000E+00
      0.40953000E+02      0.26160000E+01      0.00000000E+00
      0.92400000E+00      0.20610000E+01      0.00000000E+00
      0.15032000E+02      0.28090000E+01      0.00000000E+00
      0.13341000E+02      0.22880000E+01      0.00000000E+00
      0.47169000E+02      0.20610000E+01      0.00000000E+00
      0.32821000E+02      0.20440000E+01      0.00000000E+00
      0.30936000E+02      0.23150000E+01      0.00000000E+00
      0.37090000E+02      0.22150000E+01      0.00000000E+00
      0.35023000E+02      0.25050000E+01      0.00000000E+00
      0.28986000E+02      0.24220000E+01      0.00000000E+00
      0.26945000E+02      0.21920000E+01      0.00000000E+00
      0.32998000E+02     -0.24260000E+01      0.00000000E+00
      0.30966000E+02     -0.23930000E+01      0.00000000E+00
      0.47189000E+02     -0.19710000E+01      0.00000000E+00
      0.13014000E+02     -0.24580000E+01      0.00000000E+00
      0.11322000E+02     -0.23600000E+01      0.00000000E+00
      0.29930000E+01     -0.24230000E+01      0.00000000E+00
      0.87500000E+00     -0.19380000E+01      0.00000000E+00
      0.40967000E+02     -0.26720000E+01      0.00000000E+00
      0.38985000E+02     -0.25480000E+01      0.00000000E+00
      0.45015000E+02     -0.24350000E+01      0.00000000E+00
      0.43005000E+02     -0.22790000E+01      0.00000000E+00
      0.50490000E+01     -0.22060000E+01      0.00000000E+00
      0.22998000E+02     -0.23430000E+01      0.00000000E+00
      0.20926000E+02     -0.25090000E+01      0.00000000E+00
      0.69020000E+01     -0.24560000E+01      0.00000000E+00
      0.36661000E+02     -0.28340000E+01      0.00000000E+00
      0.34928000E+02     -0.25300000E+01      0.00000000E+00
      0.16803000E+02     -0.27630000E+01      0.00000000E+00
      0.14912000E+02     -0.29420000E+01      0.00000000E+00
      0.19178000E+02     -0.25570000E+01      0.00000000E+00
      0.38920000E+02      0.21230000E+01      0.00000000E+00
      0.71270000E+01      0.27350000E+01      0.00000000E+00
      0.89560000E+01     -0.24810000E+01      0.00000000E+00
      0.28718000E+02     -0.23830000E+01      0.00000000E+00
      0.44802000E+02      0.23450000E+01      0.00000000E+00
      0.42841000E+02      0.26380000E+01      0.00000000E+00
      0.19258000E+02      0.26990000E+01      0.00000000E+00
      0.17256000E+02      0.27000000E+01      0.00000000E+00
      0.24826000E+02      0.23450000E+01      0.00000000E+00
      0.22589000E+02      0.28490000E+01      0.00000000E+00
      0.20906000E+02      0.25120000E+01      0.00000000E+00
      0.50090000E+01      0.27980000E+01      0.00000000E+00
      0.32440000E+01      0.23470000E+01      0.00000000E+00
      0.11223000E+02      0.23980000E+01      0.00000000E+00
      0.96260000E+01      0.17990000E+01      0.00000000E+00
      0.80560000E+01      0.26390000E+01      0.00000000E+00
      0.41930000E+02      0.20200000E+01      0.00000000E+00
      0.14280000E+02      0.21030000E+01      0.00000000E+00
      0.31889000E+02      0.20650000E+01      0.00000000E+00
[...]
POINT_DATA      1754
CELL_DATA      6956
SCALARS Resistivity double 1
LOOKUP_TABLE default
           101.01213           101.09669            99.74949            96.53226           108.13377           142.28732            98.96526           101.93751           101.51917           116.22226           103.03797           101.30501            96.10439           103.39332            94.98173           100.24041            99.13284           102.10273            98.66656           102.20459            97.60530            97.57623           101.92322           126.68714           101.82856           102.75449           104.11298            98.80115           132.61550           100.77495           104.82954            96.14406            96.06839            93.84085           100.56027            98.45153           101.40973            99.49797           100.90649            98.29803           103.65937           133.18271           110.30994           165.96292           115.88363           119.67018           142.14287           103.33597           102.57492            97.17956            98.30519           101.63034            99.17133           102.62962           101.51057            96.39174            98.44816           116.62332            96.25296           101.13047           100.27123            99.05839           131.75670           104.05704           112.51670           102.84033            96.36598           169.90682            96.78804            99.64878           100.41181           115.63239            99.39197           101.90391           102.29770           102.19792           100.11995           101.60458            99.69425            97.62637           101.15321            93.58608            99.14658           100.73087            96.90698            95.35118            94.64765           100.47371           100.58820           110.24146            96.17476            99.33160           101.79496           103.34554            99.73412           118.97083            99.47476            99.33864            95.96993           100.95672            99.15036            97.43936           105.91789            93.14569           102.83164           102.05061           102.42309            96.45085           102.83202            98.31046            94.31083           100.79224           100.16269           109.38101            96.65139           101.66878           100.81324           101.17209            98.05948            97.69127            99.58592           103.56066           119.77692           103.34767            96.72917            99.54979           105.48242           108.01165            98.93806            98.38867           110.26292           110.99128           100.60276           179.90831            96.16102            98.52717           106.29038           102.24803           100.21662           101.21159            96.22425           100.88434           101.84776            99.10440            98.14231           100.77726           101.65762           102.60853            99.90480           101.62123           102.55738            94.64964           100.59332            99.91537           103.88665           103.91707           100.43321            96.93969           101.63822           101.38194           162.14462           103.71059           103.74664            98.97676           114.57117           103.87460           122.05089           103.06215           111.47805           102.25102           102.92105           101.88969            95.81970           106.77074           101.70414           100.40154           101.06456            97.99030           108.09242           111.43593           109.95867            99.06945           101.12976            98.08493           101.59079           100.48512            98.59245           102.88407            98.38233           100.54988           101.51880            98.80628           117.60946            99.59572            94.61527            99.06757           101.22972           111.18723           103.60264           103.42305           102.99473            99.18609            96.31177            99.61474            98.55066            98.20010            95.81817            98.70874           106.35181            93.44793            99.51470            96.57780           102.81308           102.94685           101.73401            99.26112           107.45315            99.64064            99.30366            95.55831           100.60969           100.87468            96.85816           106.53543           101.22737           101.67534            97.54745           100.86338           100.92652           105.17598            99.61038           103.55765            99.11097           104.21025           100.73118            98.00026           117.46719           102.06360           103.83101            98.58505           100.17078           102.38378           100.87869           113.37353            99.17335            99.63907           109.24765            99.59749            99.22398            97.47493            95.86043           107.38079           101.13230            99.51658            99.71917           100.27249           108.27457           102.18111           108.05256           100.16847           101.61346           100.10900            98.70400            99.74967           107.05736            99.98925            98.26182            99.23691           102.89872            99.84307           101.67882            99.00932           104.08653           103.32173            99.59091            95.99330            99.20219            97.64261            99.23011           154.99587            88.05957           101.04984           102.22158           120.53268           106.27367           104.80316            99.46318           118.57130           107.75670           103.96805           100.58266            95.39583           110.57932           102.49322           110.10408           101.73606            98.13443           100.52752            96.12258           101.40604            97.00144            99.12877            99.55632            96.81218           106.20191            94.33997           111.31486           100.40135           118.51216           103.53983            99.48164           100.94382           102.38113           120.40911           100.71610            99.82581           109.03776            99.49392           100.10882           104.10554           103.74692           110.49361            99.09044           101.51297           101.63546            98.52517            96.44398            98.49945           101.94782           100.40709           103.63415           112.67490           100.95613           104.85374           103.04805           101.62375            98.45349           107.00003           104.25674           101.35295            98.50228           101.94146           101.09238            98.80045            99.44773           100.01812            98.55700            96.87777           137.69817            98.03643           100.56844            98.84977           100.45239           100.80390           102.21465            99.37697           103.79521           103.52282           100.64987           100.05806           126.56743           107.24921            93.04489           101.08535            98.54858           101.20052           143.45120            99.40945            96.72286           100.42437           102.58972           102.32376           100.12295            98.96527            99.55188            99.92677            99.64734           100.87261           111.28433           159.95947            98.94613            99.41491           100.07496            97.72643           100.64145           102.91369            93.77164            98.60788            98.46470            97.24154           129.47815           100.58935            95.86328            98.76532           108.22705           102.07301            96.15175           109.10044            99.19244           103.64633            95.98342           104.02653           112.02973            97.62082            99.34817           101.07441           102.53028           101.77421           101.38267            95.99357            98.84529            97.71666            99.70691            98.58042            99.80597            96.46691            99.60475           100.40829           101.29305            97.33664            94.76689            99.23012            99.57827           102.03686            97.43262            97.90075           100.97726           100.95050           100.24994            97.69194           100.63005           100.36923           100.43810            97.78300           119.70867            99.44498           100.72515           108.95776            98.91496           123.02848           101.41005            99.37216           103.05172            95.45882           100.01855           101.37129            98.76051            97.14291           134.15512           103.41392           103.56692            98.68228           101.12220            98.17156           101.96838           100.77136            93.88287            99.32595            99.43049            99.94374            96.91920            99.76266           103.85544           101.55046           107.42676           100.58295           100.97417            99.82240           102.21469            99.07994           100.74155            98.91224           105.91495           103.34749           101.34608            99.90886            99.05725            95.61615            98.61713            94.50967            99.62319            98.87374           105.57312            99.14486            95.28606           104.31738            98.78277           105.49934           102.27010           101.45847           103.77365           101.85771            99.08255           107.41828           109.51819            98.61591            99.34746           100.43147           108.38417            97.57489            98.65887            99.37995           102.34121           108.93418           101.14705           101.43795           102.91098           101.28374            98.70967           163.47379            94.75402           102.46822           109.78395           100.05795           101.07649           105.73158            99.99675            97.53347           104.69386           166.54427           113.38333           100.33902           101.70722            97.44895            98.73553            99.91619           107.76963            95.52834            97.61554           111.34076            98.62393            96.60762           114.98868           101.57678            99.93883           100.64325            99.97783           111.52193           108.11026            96.84128           101.39491           107.20753            95.82914            97.10453           100.36041            97.45070            96.88459           103.18701           108.04574            98.51965           109.24272            96.20243           116.51444            98.27918           100.07845            99.24981            97.84740           146.28947            99.08106           107.17807            95.73259           116.42743           101.95146           137.53798           100.00250            98.61836            98.72917           104.83372            99.60436            95.76675            99.68384           103.49132           100.09375           153.46571            99.24868           102.61489           102.62580           104.79517            99.36243           100.72404           101.22506           101.40522           101.54848           100.57251           102.84058           101.02206           101.52116           102.73012           112.27972           110.78660           101.94024            99.04263           104.65391           136.39282           100.58645           101.95955            99.31682            98.25977            94.08967            99.47866            99.94451           110.09567           102.60611            96.68842           106.57059           133.67375           104.76932           111.32164           101.76713           100.73767           100.28341           130.35194            98.28443           142.89151            96.71196            98.07508           100.55585           102.66172            97.80334           100.81033           104.73733           101.31753           105.24280           102.39383           100.00495            98.47486           101.56044           102.45535           107.43442            98.41667           103.06138            97.92600           102.92128            99.33269           100.36352            99.50223           100.69759           108.51632           100.06706           100.03617            98.93878            99.38907           100.85492           108.86957           101.52655            98.60552            95.48597            99.58865           109.26058           101.20348           100.14697           114.32840           109.77938           102.01119            99.40259           100.29419            97.19714           122.75500            99.18689            97.99452           109.15783            96.70148           105.92580            97.11123            98.61279            97.62459           101.89105            99.31412           144.86304            97.25721           101.55017            96.26976            96.66518            95.66029           102.24562            96.81550            98.97035            99.77284            98.63419           100.82182            97.24733           105.06475            97.04495           102.50998           100.30536            98.42253           101.80729           107.07312           102.48543            95.82351           102.33948            95.05103           105.80102           113.21674           101.05446           104.25099            99.35812           103.71657           108.61073           103.43601            99.97682           129.40096           103.25809            99.97750            96.90741           110.48068           101.62856           102.78865            99.36217            95.36709           102.76911           109.91110            96.53653           103.47499            97.26015           101.62653           102.63204           101.65483           100.35099           101.31233           101.74496           157.66279           153.49248           100.86569           100.67401           100.16816           108.03156            99.13674           100.12046            98.63674           108.24461           106.10330            96.66809            97.12989            93.48772           100.07760            96.51575           102.14223            93.77375            99.60106            99.87282           110.24201           103.09628           107.90042           129.58771            97.78652            94.67460           101.01385           103.89682           107.43585           104.57374           110.65595           100.75233           100.90218           103.67332           128.20017           192.63807           100.39293           101.51596           101.74751           101.33219            97.33533           101.74528            95.62911           102.42369           101.58441            95.75673           113.02426           101.54841           116.99669            97.39817            98.52184            98.59721           103.04092           100.82645           100.24448           107.16412           100.82013           103.07289            95.94903           108.13778           100.94408            99.59487           107.90742            99.46134            96.33108            97.18756            99.48312           128.80693           115.00558           145.92809            97.28099            99.98278           105.34502            97.39907           104.98646           105.71910            97.80010            97.86028           101.04800           102.00731           108.56646           105.02040           101.99947           100.04343           102.06315            99.34505           145.90717            96.63030            96.57955            95.16678           103.81585            93.48445           100.57967            98.35750           106.10525            98.77935            98.37848            96.84708            97.30684            96.78752           100.30459            96.14868            97.91902            95.77915           102.98850            99.71333            98.41361           102.47307           176.95079           101.42798           116.18180            95.94263           100.92210            98.85296            97.75788           101.16660           114.78359            98.84538           102.42060            99.67137           100.12530            97.10588            99.36365            99.01686            98.33466           101.27659           105.13494           101.54737            96.46742           107.50662           112.48801            98.26722           110.55189            99.95791           100.73401           104.39120           103.88530            95.89445           100.58475            99.45700           101.27717           103.02035            97.47529           100.84432           105.64733           101.26213            99.74029           100.17200            99.50828            96.33016           100.12316           109.47230           128.27205           100.00039           101.05358           134.99375           151.59807           107.72919            98.70652           102.48891           102.04624            99.72376           110.60342            98.80381           101.32581            98.95626            96.83107           103.71782            98.67625           125.09755           104.35206            96.43332           100.84557            97.54432            98.20999           103.77551           100.98862           101.08642           100.56649           101.96407            97.80738           101.55976           102.65787            94.37172            98.75988           103.00315            99.12032           102.85922           149.15694            99.98514            94.10858           104.84907            94.40211            96.94698           111.48794            94.86890           155.15735           101.35382            96.17903           100.76501            98.68857           102.01566           132.77035           108.12353           100.18722           110.36254           108.24087           102.38308           113.33799           108.55973            99.08515            98.09873           143.04631            98.83894           104.87121            99.53508           105.45528           101.12511            99.50722           100.98907            99.43303           103.29212            99.06617            97.61177            99.78318           104.93020           106.99853           101.63251           101.29857            95.40169           104.03404           150.15897            96.24949           100.96072           100.63852            98.12529           104.08775           101.83557           105.20648           100.41772           103.26994           139.89760           102.62694           101.98451           101.39024           100.94923            98.86558           101.55529           111.02162            97.95334           121.70444            99.43689           105.68492           134.74247            93.56127           102.55074           104.93345            96.85950           100.02740            98.47967            99.23433            99.24048            96.30107            98.32292           108.01323            96.74866           104.53255           101.31069            98.18131           101.56706           103.15471            94.98938           102.16684           107.85872     