# vtk DataFile Version 3.0
Output from R2
ASCII
DATASET UNSTRUCTURED_GRID
POINTS       3860 double
    -0.12500     0.00000   0.
    -0.12500    -0.05500   0.
    -0.12500    -0.11550   0.
    -0.12500    -0.18210   0.
    -0.12500    -0.25530   0.
    -0.12500    -0.33580   0.
    -0.12500    -0.42440   0.
    -0.12500    -0.52180   0.
    -0.12500    -0.62900   0.
    -0.12500    -0.74690   0.
    -0.12500    -0.87660   0.
    -0.12500    -1.01920   0.
    -0.12500    -1.17610   0.
    -0.12500    -1.34870   0.
    -0.12500    -1.53860   0.
    -0.12500    -1.74750   0.
    -0.12500    -1.97720   0.
    -0.12500    -2.23000   0.
    -0.12500    -2.50800   0.
    -0.12500    -2.81370   0.
    -0.09380     0.00000   0.
    -0.09380    -0.05500   0.
    -0.09380    -0.11550   0.
    -0.09380    -0.18210   0.
    -0.09380    -0.25530   0.
    -0.09380    -0.33580   0.
    -0.09380    -0.42440   0.
    -0.09380    -0.52180   0.
    -0.09380    -0.62900   0.
    -0.09380    -0.74690   0.
    -0.09380    -0.87660   0.
    -0.09380    -1.01920   0.
    -0.09380    -1.17610   0.
    -0.09380    -1.34870   0.
    -0.09380    -1.53860   0.
    -0.09380    -1.74750   0.
    -0.09380    -1.97720   0.
    -0.09380    -2.23000   0.
    -0.09380    -2.50800   0.
    -0.09380    -2.81370   0.
    -0.06250     0.00000   0.
    -0.06250    -0.05500   0.
    -0.06250    -0.11550   0.
    -0.06250    -0.18210   0.
    -0.06250    -0.25530   0.
    -0.06250    -0.33580   0.
    -0.06250    -0.42440   0.
    -0.06250    -0.52180   0.
    -0.06250    -0.62900   0.
    -0.06250    -0.74690   0.
    -0.06250    -0.87660   0.
    -0.06250    -1.01920   0.
    -0.06250    -1.17610   0.
    -0.06250    -1.34870   0.
    -0.06250    -1.53860   0.
    -0.06250    -1.74750   0.
    -0.06250    -1.97720   0.
    -0.06250    -2.23000   0.
    -0.06250    -2.50800   0.
    -0.06250    -2.81370   0.
    -0.03120     0.00000   0.
    -0.03120    -0.05500   0.
    -0.03120    -0.11550   0.
    -0.03120    -0.18210   0.
    -0.03120    -0.25530   0.
    -0.03120    -0.33580   0.
    -0.03120    -0.42440   0.
    -0.03120    -0.52180   0.
    -0.03120    -0.62900   0.
    -0.03120    -0.74690   0.
    -0.03120    -0.87660   0.
    -0.03120    -1.01920   0.
    -0.03120    -1.17610   0.
    -0.03120    -1.34870   0.
    -0.03120    -1.53860   0.
    -0.03120    -1.74750   0.
    -0.03120    -1.97720   0.
    -0.03120    -2.23000   0.
    -0.03120    -2.50800   0.
    -0.03120    -2.81370   0.
     0.00000     0.00000   0.
     0.00000    -0.05500   0.
     0.00000    -0.11550   0.
     0.00000    -0.18210   0.
     0.00000    -0.25530   0.
     0.00000    -0.33580   0.
     0.00000    -0.42440   0.
     0.00000    -0.52180   0.
     0.00000    -0.62900   0.
     0.00000    -0.74690   0.
     0.00000    -0.87660   0.
     0.00000    -1.01920   0.
     0.00000    -1.17610   0.
     0.00000    -1.34870   0.
     0.00000    -1.53860   0.
     0.00000    -1.74750   0.
     0.00000    -1.97720   0.
     0.00000    -2.23000   0.
     0.00000    -2.50800   0.
     0.00000    -2.81370   0.
     0.03120     0.00000   0.
     0.03120    -0.05500   0.
     0.03120    -0.11550   0.
     0.03120    -0.18210   0.
     0.03120    -0.25530   0.
     0.03120    -0.33580   0.
     0.03120    -0.42440   0.
     0.03120    -0.52180   0.
     0.03120    -0.62900   0.
     0.03120    -0.74690   0.
     0.03120    -0.87660   0.
     0.03120    -1.01920   0.
     0.03120    -1.17610   0.
     0.03120    -1.34870   0.
     0.03120    -1.53860   0.
     0.03120    -1.74750   0.
     0.03120    -1.97720   0.
     0.03120    -2.23000   0.
     0.03120    -2.50800   0.
     0.03120    -2.81370   0.
     0.06250     0.00000   0.
     0.06250    -0.05500   0.
     0.06250    -0.11550   0.
     0.06250    -0.18210   0.
     0.06250    -0.25530   0.
     0.06250    -0.33580   0.
     0.06250    -0.42440   0.
     0.06250    -0.52180   0.
     0.06250    -0.62900   0.
     0.06250    -0.74690   0.
     0.06250    -0.87660   0.
     0.06250    -1.01920   0.
     0.06250    -1.17610   0.
     0.06250    -1.34870   0.
     0.06250    -1.53860   0.
     0.06250    -1.74750   0.
     0.06250    -1.97720   0.
     0.06250    -2.23000   0.
     0.06250    -2.50800   0.
     0.06250    -2.81370   0.
     0.09380     0.00000   0.
     0.09380    -0.05500   0.
     0.09380    -0.11550   0.
     0.09380    -0.18210   0.
     0.09380    -0.25530   0.
     0.09380    -0.33580   0.
     0.09380    -0.42440   0.
     0.09380    -0.52180   0.
     0.09380    -0.62900   0.
     0.09380    -0.74690   0.
     0.09380    -0.87660   0.
     0.09380    -1.01920   0.
     0.09380    -1.17610   0.
     0.09380    -1.34870   0.
     0.09380    -1.53860   0.
     0.09380    -1.74750   0.
     0.09380    -1.97720   0.
     0.09380    -2.23000   0.
     0.09380    -2.50800   0.
     0.09380    -2.81370   0.
     0.12500     0.00000   0.
     0.12500    -0.05500   0.
     0.12500    -0.11550   0.
     0.12500    -0.18210   0.
     0.12500    -0.25530   0.
     0.12500    -0.33580   0.
     0.12500    -0.42440   0.
     0.12500    -0.52180   0.
     0.12500    -0.62900   0.
     0.12500    -0.74690   0.
     0.12500    -0.87660   0.
     0.12500    -1.01920   0.
     0.12500    -1.17610   0.
     0.12500    -1.34870   0.
     0.12500    -1.53860   0.
     0.12500    -1.74750   0.
     0.12500    -1.97720   0.
     0.12500    -2.23000   0.
     0.12500    -2.50800   0.
     0.12500    -2.81370   0.
     0.15620     0.00000   0.
     0.15620    -0.05500   0.
     0.15620    -0.11550   0.
     0.15620    -0.18210   0.
     0.15620    -0.25530   0.
     0.15620    -0.33580   0.
     0.15620    -0.42440   0.
     0.15620    -0.52180   0.
     0.15620    -0.62900   0.
     0.15620    -0.74690   0.
     0.15620    -0.87660   0.
     0.15620    -1.01920   0.
     0.15620    -1.17610   0.
     0.15620    -1.34870   0.
     0.15620    -1.53860   0.
     0.15620    -1.74750   0.
     0.15620    -1.97720   0.
     0.15620    -2.23000   0.
     0.15620    -2.50800   0.
     0.15620    -2.81370   0.
     0.18750     0.00000   0.
     0.18750    -0.05500   0.
     0.18750    -0.11550   0.
     0.18750    -0.18210   0.
     0.18750    -0.25530   0.
     0.18750    -0.33580   0.
     0.18750    -0.42440   0.
     0.18750    -0.52180   0.
     0.18750    -0.62900   0.
     0.18750    -0.74690   0.
     0.18750    -0.87660   0.
     0.18750    -1.01920   0.
     0.18750    -1.17610   0.
     0.18750    -1.34870   0.
     0.18750    -1.53860   0.
     0.18750    -1.74750   0.
     0.18750    -1.97720   0.
     0.18750    -2.23000   0.
     0.18750    -2.50800   0.
     0.18750    -2.81370   0.
     0.21880     0.00000   0.
     0.21880    -0.05500   0.
     0.21880    -0.11550   0.
     0.21880    -0.18210   0.
     0.21880    -0.25530   0.
     0.21880    -0.33580   0.
     0.21880    -0.42440   0.
     0.21880    -0.52180   0.
     0.21880    -0.62900   0.
     0.21880    -0.74690   0.
     0.21880    -0.87660   0.
     0.21880    -1.01920   0.
     0.21880    -1.17610   0.
     0.21880    -1.34870   0.
     0.21880    -1.53860   0.
     0.21880    -1.74750   0.
     0.21880    -1.97720   0.
     0.21880    -2.23000   0.
     0.21880    -2.50800   0.
     0.21880    -2.81370   0.
     0.25000     0.00000   0.
     0.25000    -0.05500   0.
     0.25000    -0.11550   0.
     0.25000    -0.18210   0.
     0.25000    -0.25530   0.
     0.25000    -0.33580   0.
     0.25000    -0.42440   0.
     0.25000    -0.52180   0.
     0.25000    -0.62900   0.
     0.25000    -0.74690   0.
     0.25000    -0.87660   0.
     0.25000    -1.01920   0.
     0.25000    -1.17610   0.
     0.25000    -1.34870   0.
     0.25000    -1.53860   0.
     0.25000    -1.74750   0.
     0.25000    -1.97720   0.
     0.25000    -2.23000   0.
     0.25000    -2.50800   0.
     0.25000    -2.81370   0.
     0.28120     0.00000   0.
     0.28120    -0.05500   0.
     0.28120    -0.11550   0.
     0.28120    -0.18210   0.
     0.28120    -0.25530   0.
     0.28120    -0.33580   0.
     0.28120    -0.42440   0.
     0.28120    -0.52180   0.
     0.28120    -0.62900   0.
     0.28120    -0.74690   0.
     0.28120    -0.87660   0.
     0.28120    -1.01920   0.
     0.28120    -1.17610   0.
     0.28120    -1.34870   0.
     0.28120    -1.53860   0.
     0.28120    -1.74750   0.
     0.28120    -1.97720   0.
     0.28120    -2.23000   0.
     0.28120    -2.50800   0.
     0.28120    -2.81370   0.
     0.31250     0.00000   0.
     0.31250    -0.05500   0.
     0.31250    -0.11550   0.
     0.31250    -0.18210   0.
     0.31250    -0.25530   0.
     0.31250    -0.33580   0.
     0.31250    -0.42440   0.
     0.31250    -0.52180   0.
     0.31250    -0.62900   0.
     0.31250    -0.74690   0.
     0.31250    -0.87660   0.
     0.31250    -1.01920   0.
     0.31250    -1.17610   0.
     0.31250    -1.34870   0.
     0.31250    -1.53860   0.
     0.31250    -1.74750   0.
     0.31250    -1.97720   0.
     0.31250    -2.23000   0.
     0.31250    -2.50800   0.
     0.31250    -2.81370   0.
     0.34380     0.00000   0.
     0.34380    -0.05500   0.
     0.34380    -0.11550   0.
     0.34380    -0.18210   0.
     0.34380    -0.25530   0.
     0.34380    -0.33580   0.
     0.34380    -0.42440   0.
     0.34380    -0.52180   0.
     0.34380    -0.62900   0.
     0.34380    -0.74690   0.
     0.34380    -0.87660   0.
     0.34380    -1.01920   0.
     0.34380    -1.17610   0.
     0.34380    -1.34870   0.
     0.34380    -1.53860   0.
     0.34380    -1.74750   0.
     0.34380    -1.97720   0.
     0.34380    -2.23000   0.
     0.34380    -2.50800   0.
     0.34380    -2.81370   0.
     0.37500     0.00000   0.
     0.37500    -0.05500   0.
     0.37500    -0.11550   0.
     0.37500    -0.18210   0.
     0.37500    -0.25530   0.
     0.37500    -0.33580   0.
     0.37500    -0.42440   0.
     0.37500    -0.52180   0.
     0.37500    -0.62900   0.
     0.37500    -0.74690   0.
[...]
POINT_DATA      3860
CELL_DATA      3648
SCALARS Resistivity(Ohm-m) double 1
LOOKUP_TABLE default
            40.18912            40.10826            40.07595            40.15643            40.35459            40.66828            41.09101            41.61552            42.22751            42.91185            43.63952            44.38015            45.12213            45.83945            46.51774            47.14610            47.73069            48.27552            48.76829            38.53809            38.47638            38.50132            38.64422            38.90713            39.29901            39.80756            40.42488            41.13999            41.92354            42.76684            43.63804            44.48549            45.30824            46.10298            46.84584            47.52721            48.15830            48.73974            37.06012            37.05454            37.14338            37.33895            37.65694            38.10642            38.68570            39.38624            40.18743            41.07480            42.00682            42.96788            43.93748            44.86569            45.74426            46.57728            47.35569            48.07469            48.73762            35.77523            35.87183            36.01824            36.24798            36.60143            37.09547            37.73005            38.49111            39.36804            40.32732            41.34901            42.40102            43.44470            44.46601            45.43927            46.35882            47.21707            48.01227            48.74958            34.95892            35.00935            35.12912            35.35725            35.73132            36.25933            36.93598            37.74853            38.67790            39.70511            40.79461            41.91428            43.04250            44.13969            45.19050            46.18423            47.11573            47.98537            48.78425            34.38541            34.38267            34.45296            34.65678            35.02345            35.57009            36.28064            37.13718            38.11421            39.18763            40.33634            41.51939            42.70655            43.87112            44.99153            46.05797            47.06020            47.98813            48.84908            34.00315            33.94931            33.96248            34.13211            34.48543            35.02469            35.75535            36.64642            37.66034            38.78164            39.97180            41.20836            42.45379            43.67898            44.86164            45.97879            47.03070            48.02118            48.93391            33.74203            33.63232            33.59160            33.73707            34.08353            34.62500            35.36456            36.27774            37.32793            38.47679            39.70957            40.98701            42.27647            43.54827            44.78049            45.95491            47.05224            48.07664            49.03670            33.55623            33.39613            33.32532            33.45777            33.80383            34.36145            35.11462            36.03683            37.10379            38.28637            39.53874            40.84630            42.17641            43.48540            44.75159            45.96587            47.11583            48.18354            49.16895            33.35408            33.16433            33.11523            33.27688            33.64127            34.21119            34.97796            35.91529            36.99255            38.18646            39.47036            40.79692            42.14470            43.48684            44.79135            46.03649            47.21804            48.31938            49.33042            33.09050            32.93182            32.97957            33.19281            33.58906            34.18029            34.96083            35.90165            36.98510            38.18942            39.47438            40.82886            42.19960            43.55681            44.88238            46.15657            47.35632            48.47170            49.50845            32.49288            32.73723            32.94195            33.22948            33.65921            34.27079            35.06427            36.01825            37.10134            38.29563            39.59615            40.94385            42.31921            43.69479            45.03277            46.31262            47.52049            48.65572            49.70564            32.65170            32.85023            33.07448            33.37579            33.83218            34.46518            35.26921            36.22331            37.30731            38.50836            39.79081            41.14524            42.51951            43.88746            45.22991            46.51728            47.73513            48.87306            49.93530            33.15045            33.22525            33.36199            33.63433            34.09663            34.74471            35.56017            36.52484            37.61606            38.80741            40.09146            41.42534            42.79396            44.16286            45.49429            46.77338            47.98569            49.12727            50.18487            33.80426            33.72130            33.71685            33.93624            34.41107            35.09528            35.94257            36.92774            38.02828            39.22048            40.48217            41.80588            43.14632            44.48939            45.80619            47.07046            48.27654            49.40759            50.46207            34.50334            34.24921            34.07325            34.23584            34.74238            35.49023            36.39839            37.42779            38.54455            39.72489            40.97034            42.25693            43.57534            44.88381            46.17345            47.42270            48.60851            49.73117            50.77652            35.19549            34.64497            34.30790            34.46892            35.06192            35.92793            36.94010            38.02967            39.16884            40.34511            41.55786            42.81861            44.08538            45.36089            46.61777            47.83307            48.99219            50.08661            51.11274            35.71223            34.74517            34.34102            34.60222            35.35933            36.40110            37.55628            38.73549            39.90744            41.07331            42.25766            43.45650            44.68377            45.90348            47.11783            48.29706            49.42018            50.48514            51.47366            35.40345            34.23492            34.13808            34.66781            35.67391            36.94260            38.27480            39.55599            40.76048            41.91451            43.04879            44.19891            45.35382            46.52411            47.68181            48.81094            49.89211            50.91484            51.87454            31.73302            33.12061            33.85766            34.78891            36.07683            37.58779            39.10982            40.50389            41.74260            42.87543            43.96534            45.03955            46.12617            47.21421            48.31033            49.37954            50.41107            51.38335            52.29134            31.22869            32.93148            34.09897            35.23447            36.70017            38.40492            40.10004            41.60571            42.88430            43.99279            45.00827            46.00084            46.98832            47.99597            48.99989            50.00360            50.96520            51.87765            52.73440            32.37093            34.05010            35.18043            36.20219            37.66105            39.46558            41.28660            42.87906            44.18014            45.24795            46.17785            47.05098            47.94352            48.84294            49.75791            50.67214            51.57008            52.41000            53.19758            34.95687            36.57871            37.28401            37.79401            38.99353            40.76888            42.66001            44.31329            45.61483            46.62962            47.46441            48.22145            48.97122            49.77115            50.58476            51.40093            52.20201            52.97406            53.69541            39.30708            40.80942            40.56859            40.06769            40.71298            42.31816            44.22533            45.92190            47.21599            48.15461            48.87725            49.50265            50.11945            50.76043            51.45868            52.17601            52.88329            53.56083            54.21187            46.23558            47.27826            45.06821            42.89120            42.68789            44.01715            45.91161            47.65630            48.95028            49.81693            50.40579            50.87728            51.33762            51.84734            52.39320            52.98986            53.60042            54.19029            54.75079            57.19256            56.45464            50.47108            45.89456            44.64592            45.67729            47.59695            49.43301            50.75793            51.56053            52.02483            52.33664            52.63375            52.98217            53.40507            53.86811            54.36063            54.85134            55.32079            73.98362            67.32472            55.58482            48.37611            46.19810            47.08602            49.15971            51.18501            52.60728            53.38596            53.73392            53.89129            54.02167            54.20934            54.46721            54.79631            55.16101            55.54180            55.90855            89.83374            73.84351            58.14619            49.43403            46.94643            48.04542            50.50674            52.87560            54.48376            55.28698            55.54562            55.54498            55.48919            55.49736            55.60366            55.77099            55.99951            56.25664            56.52096            79.25186            70.12684            56.53610            48.59763            46.72244            48.48845            51.60863            54.49659            56.40303            57.27972            57.45487            57.29924            57.06189            56.87738            56.79536            56.81420            56.89010            57.01568            57.16141            65.70955            61.57134            52.29939            46.41938            45.77013            48.53157            52.52783            56.08463            58.38107            59.38945            59.50364            59.17653            58.73299            58.34514            58.06550            57.89361            57.81490            57.79501            57.81419            54.88909            53.39432            47.58391            43.84356            44.56161            48.43994            53.42217            57.73910            60.48274            61.64237            61.69825            61.18803            60.51087            59.88116            59.38823            59.02615            58.77107            58.60419            58.48881            47.68153            47.61196            43.85686            41.69084            43.57895            48.51443            54.48091            59.57823            62.78747            64.09400            64.06009            63.34264            62.40951            61.51994            60.77439            60.19913            59.76358            59.43122            59.18452            44.25823            44.96744            41.98314            40.58186            43.22964            49.01613            55.87275            61.71342            65.36179            66.78677            66.63384            65.65899            64.42574            63.23954            62.23645            61.42889            60.79140            60.28680            59.88847            45.51869            46.34150            42.41884            40.76650            43.67742            50.06971            57.69432            64.21836            68.26387            69.75138            69.41188            68.13586            66.56888            65.06231            63.75838            62.70882            61.86105            61.17126            60.60884            55.06521            53.07749            45.33193            42.25216            44.92613            51.69063            59.97063            67.10518            71.47758            72.97196            72.40874            70.77136            68.82389            66.97112            65.36279            64.02384            62.95190            62.07578            61.34435            86.58606            64.44287            49.85462            44.49874            46.68152            53.72402            62.62012            70.35594            75.03642            76.48300            75.63079            73.60647            71.22859            68.97560            67.02495            65.40361            64.08071            63.00519            62.09912            91.96316            71.13181            53.28886            46.50686            48.45099            55.89979            65.49792            73.88171            78.89125            80.27105            79.06697            76.57289            73.74173            71.06800            68.74842            66.81556            65.23885            63.94173            62.85487            88.60365            71.82076            54.52387            47.60279            49.83509            57.96840            68.44632            77.58448            82.95217            84.25689            82.68050            79.68922            76.34310            73.22139            70.52352            68.26758            66.41307            64.89249            63.61694            82.43362            68.78880            53.56448            47.59555            50.64956            59.77998            71.35744            81.38051            87.17396            88.42095            86.45605            82.93215            79.04492            75.42289            72.31514            69.73039            67.60042            65.84536            64.38359            75.33351            63.73653            50.97946            46.65592            50.93391            61.31693            74.18380            85.23717            91.52836            92.73254            90.35059            86.25201            81.78792            77.65990            74.11848            71.18987            68.78324            66.79588            65.13563            68.24956            57.84823            47.56032            45.20047            50.92125            62.70721            76.99346            89.16648            95.99440            97.14763            94.32644            89.62189            84.56061            79.91713            75.94951            72.66017            69.96557            67.74240            65.88214            61.83661            52.08093            44.22748            43.80647            50.96859            64.17053            79.89082            93.21095           100.58276           101.65502            98.35284            93.02293            87.34406            82.16283            77.75206            74.10805            71.11918            68.65788            66.60682            55.93989            47.11361            41.79536            43.01735            51.43973            65.93529            82.99772            97.39549           105.25753           106.20487           102.38779            96.40538            90.09476            84.36750            79.50897            75.50900            72.24237            69.55089            67.30868            46.07139            44.05037            41.02352            43.34616            52.67399            68.22744            86.44078           101.76433           110.01173           110.76131           106.39178            99.74402            92.79488            86.52092            81.22316            76.86874            73.32227            70.41365            67.98845            46.88406            45.36404            42.65869            45.07231            54.78029            71.05334            90.16068           106.21439           114.72581           115.22579           110.27927           102.96503            95.38792            88.57701            82.84926            78.15918            74.34165            71.22338            68.63685            52.49945            50.22590            46.35496            47.96605            57.55405            74.22369            93.97766           110.57722           119.25438           119.47563           113.95442           105.98585            97.81286            90.49146            84.35084            79.34493            75.28855            71.97701            69.23916            60.38197            56.85810            51.04936            51.33796            60.49138            77.32407            97.54847           114.56973           123.34320           123.30460           117.27930           108.71550            99.99068            92.22150            85.71717            80.42649            76.15389            72.67656            69.79779            68.37308            63.13371            55.10967            54.11918            62.84338            79.78077           100.40820           117.83934           126.77076           126.56562           120.15091           111.10094           101.89848            93.73089            86.92617            81.39372            76.92411            73.29256            70.29652            74.09123            66.68225            56.91258            55.33268            63.96480            81.10961           102.16876           120.08489           129.31021           129.09563           122.43903           113.04856           103.49034            95.00026            87.93711            82.21215            77.58710            73.82845            70.73466            75.13834            65.45937            55.48097            54.46968            63.52198            81.06456           102.62484           121.11805           130.81920           130.80356           124.07372           114.48104           104.70450            96.00454            88.74918            82.87061            78.13345            74.28772            71.12474            69.32523            58.75521            51.24337            51.85978            61.73623            79.78267           101.85958           120.96720           131.25387           131.63400           125.04873           115.41486           105.53008            96.72410            89.36631            83.38650            78.56686            74.66317            71.45485            52.27077            49.44226            45.93404            48.52047            59.23222            77.68561           100.15269           119.80712           130.71336           131.60757           125.34555           115.85109           105.97753            97.13510            89.74358            83.73261            78.87601            74.93834            71.70648            44.47452            43.31785            42.07451            45.76919            56.85883            75.35282            97.89141  