# vtk DataFile Version 3.0
Output from R2
ASCII
DATASET UNSTRUCTURED_GRID
POINTS       3980 double
     0.00000     0.00000   0.
     0.25000     0.00000   0.
     0.50000     0.00000   0.
     0.75000     0.00000   0.
     1.00000     0.00000   0.
     1.25000     0.00000   0.
     1.50000     0.00000   0.
     1.75000     0.00000   0.
     2.00000     0.00000   0.
     2.25000     0.00000   0.
     2.50000     0.00000   0.
     2.75000     0.00000   0.
     3.00000     0.00000   0.
     3.25000     0.00000   0.
     3.50000     0.00000   0.
     3.75000     0.00000   0.
     4.00000     0.00000   0.
     4.25000     0.00000   0.
     4.50000     0.00000   0.
     4.75000     0.00000   0.
     5.00000     0.00000   0.
     5.25000     0.00000   0.
     5.50000     0.00000   0.
     5.75000     0.00000   0.
     0.08333     0.00000   0.
     0.16667     0.00000   0.
     0.33333     0.00000   0.
     0.41667     0.00000   0.
     0.58333     0.00000   0.
     0.66667     0.00000   0.
     0.83333     0.00000   0.
     0.91667     0.00000   0.
     1.08333     0.00000   0.
     1.16667     0.00000   0.
     1.33333     0.00000   0.
     1.41667     0.00000   0.
     1.58333     0.00000   0.
     1.66667     0.00000   0.
     1.83333     0.00000   0.
     1.91667     0.00000   0.
     2.08333     0.00000   0.
     2.16667     0.00000   0.
     2.33333     0.00000   0.
     2.41667     0.00000   0.
     2.58333     0.00000   0.
     2.66667     0.00000   0.
     2.83333     0.00000   0.
     2.91667     0.00000   0.
     3.08333     0.00000   0.
     3.16667     0.00000   0.
     3.33333     0.00000   0.
     3.41667     0.00000   0.
     3.58333     0.00000   0.
     3.66667     0.00000   0.
     3.83333     0.00000   0.
     3.91667     0.00000   0.
     4.08333     0.00000   0.
     4.16667     0.00000   0.
     4.33333     0.00000   0.
     4.41667     0.00000   0.
     4.58333     0.00000   0.
     4.66667     0.00000   0.
     4.83333     0.00000   0.
     4.91667     0.00000   0.
     5.08333     0.00000   0.
     5.16667     0.00000   0.
     5.33333     0.00000   0.
     5.41667     0.00000   0.
     5.50806     0.00000   0.
     5.51613     0.00000   0.
     5.52419     0.00000   0.
     5.53226     0.00000   0.
     5.54032     0.00000   0.
     5.54839     0.00000   0.
     5.55645     0.00000   0.
     5.56452     0.00000   0.
     5.57258     0.00000   0.
     5.58065     0.00000   0.
     5.58871     0.00000   0.
     5.59677     0.00000   0.
     5.60484     0.00000   0.
     5.61290     0.00000   0.
     5.62097     0.00000   0.
     5.62903     0.00000   0.
     5.63710     0.00000   0.
     5.64516     0.00000   0.
     5.65323     0.00000   0.
     5.66129     0.00000   0.
     5.66935     0.00000   0.
     5.67742     0.00000   0.
     5.68548     0.00000   0.
     5.69355     0.00000   0.
     5.70161     0.00000   0.
     5.70968     0.00000   0.
     5.71774     0.00000   0.
     5.72581     0.00000   0.
     5.73387     0.00000   0.
     5.74194     0.00000   0.
     5.64113    -2.00012   0.
     5.50403    -1.00475   0.
    -0.00023    -2.00002   0.
     5.74763    -0.53147   0.
     4.67745    -1.62680   0.
     5.50403    -0.32080   0.
     0.99080    -1.24963   0.
     2.69378    -1.26834   0.
     5.98148    -0.26316   0.
     5.74759    -0.23753   0.
     3.81781    -1.02481   0.
     0.08159    -1.08432   0.
     5.99727    -1.44394   0.
     4.71551    -0.81641   0.
     1.82651    -0.92071   0.
     5.07900    -2.01759   0.
     5.34201    -1.53050   0.
     5.59813    -0.16826   0.
     1.61024    -1.53763   0.
     3.16665    -0.73523   0.
     3.33188    -1.47768   0.
     0.62379    -0.67787   0.
     0.42118    -1.57762   0.
     4.06206    -1.58219   0.
     1.26571    -0.65653   0.
     2.44933    -0.65739   0.
     2.18913    -1.61599   0.
     5.92047    -1.01440   0.
     5.88099    -0.12118   0.
     4.95314    -1.23879   0.
     5.69903    -0.11930   0.
     5.69280    -1.63666   0.
     5.16085    -0.64944   0.
     0.09064    -0.55715   0.
     4.18057    -0.57610   0.
     4.38048    -1.20498   0.
     5.34814    -1.86183   0.
     5.50751    -0.12084   0.
     3.66475    -0.53610   0.
     5.86645    -1.85454   0.
     0.54263    -1.13331   0.
     5.63606    -0.08233   0.
     1.09663    -1.67848   0.
     5.94607    -0.47033   0.
     5.91135    -0.72342   0.
     5.69183    -1.30115   0.
     5.01071    -1.66674   0.
     2.86628    -1.70156   0.
     1.41733    -1.11788   0.
     2.25115    -1.14634   0.
     5.79423    -0.08436   0.
     4.34095    -1.86223   0.
     1.68618    -0.47115   0.
     5.47874    -0.68901   0.
     4.73200    -1.96341   0.
     5.73729    -0.05979   0.
     5.56855    -0.06638   0.
     4.83112    -0.41627   0.
     3.08742    -1.13849   0.
     2.83239    -0.44001   0.
     5.27079    -1.22287   0.
     3.67650    -1.66461   0.
     1.87501    -1.83126   0.
     2.78059    -0.88175   0.
     2.10306    -0.41960   0.
     0.93878    -0.42227   0.
     1.90851    -1.35975   0.
     5.69083    -0.74372   0.
     0.76939    -1.51829   0.
     5.09818    -0.96661   0.
     0.94747    -0.88171   0.
     3.44041    -0.98959   0.
     5.16980    -0.32145   0.
     4.00662    -1.90287   0.
     5.55863    -1.80301   0.
     5.84903    -0.34827   0.
     5.68920    -0.04789   0.
     2.26203    -1.94582   0.
     0.13740    -1.72203   0.
     0.42793    -0.37390   0.
     0.31423    -0.82334   0.
     4.16826    -0.91575   0.
     3.31130    -0.37701   0.
     2.52778    -1.70279   0.
     0.17349    -1.38148   0.
     3.63229    -1.32515   0.
     1.28879    -1.41553   0.
     1.55472    -1.87189   0.
     5.95745    -0.17592   0.
     5.85944    -0.23319   0.
     4.36287    -1.54753   0.
     4.47612    -0.36253   0.
     4.64085    -1.31148   0.
     3.41976    -1.87165   0.
     4.05941    -1.25331   0.
     0.58214    -1.84203   0.
     5.70166    -0.38365   0.
     5.54856    -0.49961   0.
     5.11653    -1.42216   0.
     2.16536    -0.83048   0.
     5.95602    -0.09348   0.
     1.36375    -0.35319   0.
     5.55155    -1.46875   0.
     3.94018    -0.34111   0.
     5.90274    -1.24319   0.
     1.54140    -0.81269   0.
     5.81032    -0.16169   0.
     2.42161    -1.41568   0.
     5.71700    -0.96750   0.
     3.14726    -1.74642   0.
     5.64841    -0.03719   0.
     5.60887    -0.04013   0.
     5.31023    -0.86164   0.
     2.52376    -0.34181   0.
     3.01961    -1.42936   0.
     4.86933    -1.46696   0.
     3.90341    -0.72503   0.
     5.15033    -1.81665   0.
     2.48526    -0.95666   0.
     5.33360    -0.53567   0.
     4.40847    -0.77087   0.
     5.70688    -1.85414   0.
     1.08704    -1.95751   0.
     6.01754    -0.38139   0.
     4.75027    -1.07914   0.
     5.78550    -1.46257   0.
     0.03310    -0.30149   0.
     2.01686    -2.02563   0.
     5.78248    -0.03560   0.
     5.88474    -0.01627   0.
     5.83866    -0.04854   0.
     5.88612    -0.07060   0.
     5.94165    -0.03967   0.
     4.91828    -1.85220   0.
     5.47944    -1.26855   0.
     1.70940    -1.16556   0.
     1.35977    -1.67330   0.
     0.84946    -1.77577   0.
     5.87080    -1.67672   0.
     1.15047    -1.02915   0.
     5.42920    -1.69649   0.
     4.94989    -0.77245   0.
     0.31610    -1.87215   0.
     1.92562    -0.64242   0.
     5.87191    -0.59018   0.
     4.51320    -1.99107   0.
     3.44297    -0.70790   0.
     5.63186    -0.28545   0.
     0.56942    -1.40440   0.
     3.86632    -1.40931   0.
     0.69189    -0.28109   0.
     0.30500    -1.19066   0.
     0.79150    -1.08291   0.
     3.30927    -1.22954   0.
     5.98654    -0.86339   0.
     4.20996    -0.27531   0.
     5.18812    -1.65273   0.
     5.52076    -0.04846   0.
     0.07175    -0.79228   0.
     4.52520    -0.98514   0.
     4.61512    -0.57331   0.
     3.05683    -0.26326   0.
     1.87305    -0.27096   0.
     2.68464    -1.52054   0.
     3.57195    -0.26542   0.
     1.97796    -1.12323   0.
     1.83106    -1.57491   0.
     2.77616    -1.93683   0.
     5.76685    -1.13458   0.
     5.23821    -1.96176   0.
     5.52612    -1.93321   0.
     3.65895    -0.84381   0.
     2.14408    -1.38023   0.
     0.97457    -1.48919   0.
     5.33915    -0.20998   0.
     5.83421    -0.46009   0.
     5.83458    -0.85857   0.
     0.53707    -0.90233   0.
     4.52006    -1.77850   0.
     4.83691    -1.69726   0.
     5.84161    -0.09399   0.
     5.56240    -0.84911   0.
     2.09444    -1.81702   0.
     5.72177    -0.03210   0.
     2.92087    -0.67477   0.
     0.33292    -0.58877   0.
     1.50329    -1.33285   0.
     0.86438    -0.64245   0.
     3.79064    -1.84494   0.
     5.31463    -1.04525   0.
     1.27611    -1.86568   0.
     1.13574    -0.24765   0.
     5.63527    -0.62593   0.
     4.24248    -1.37313   0.
     0.77172    -1.31893   0.
     2.86271    -1.11114   0.
     3.01644    -0.91159   0.
     2.28163    -0.24660   0.
     4.98599    -0.56931   0.
     2.47330    -1.19505   0.
     1.48038    -0.58780   0.
     5.59721    -1.15579   0.
     1.60485    -0.24855   0.
     4.15045    -1.76419   0.
     2.68239    -0.62364   0.
     4.67522    -0.23724   0.
     4.97719    -0.22779   0.
     1.75601    -1.98252   0.
     2.99103    -1.89270   0.
     4.53931    -1.47503   0.
     5.54384    -1.61457   0.
     3.45803    -1.65447   0.
     5.57673    -0.03319   0.
     4.90215    -0.96173   0.
     5.76289    -0.64841   0.
     5.11300    -1.14056   0.
     0.36525    -1.38103   0.
     3.08079    -0.50651   0.
     5.34539    -1.36964   0.
     5.75131    -0.03039   0.
     1.32617    -0.88340   0.
[...]
POINT_DATA      3980
CELL_DATA      7624
SCALARS Resistivity(Ohm-m) double 1
LOOKUP_TABLE default
            80.48291            81.44486             8.90568             9.29384            90.75099            82.57910            94.75325             9.22954             7.85876            43.30628             7.91717            50.88169            58.25867            49.63230            62.13140            50.91767            58.38822            50.78328            59.17031            72.19536            21.51471            34.19240            62.90895             8.89693            34.27353            45.27982           129.61994            66.24518            65.35376             8.69393             8.68500            79.31929            53.90069            14.98378            20.97895            19.51539             7.84999            42.75725            53.55532             7.88479            46.24683           141.13149            58.25268            19.28110            58.53672            29.59290            73.60428            14.70842            87.16334            11.74647            11.66943            76.49820            78.56572            51.86954            84.52348            66.79479            47.23335            31.64809            23.33624            72.81299           145.49355             7.79478            25.79858            54.20483            51.60252            71.76256            21.94835            83.95215            46.06352            92.60927            46.99261           125.27843             9.16690            38.52602           122.74052            62.29973            62.01197            10.53203           104.21568            73.04179             7.80012             8.95828            28.74619            17.32345            70.19254            13.14625            62.22738            29.30868            58.15353            52.55902             8.83407            58.20420            67.16583            34.81250            31.57292           105.59718             8.89383            33.89470            43.00404            51.06586            25.61011            34.34799           117.03775            13.09290            30.14022            12.50160            13.06078            76.62467           140.06566             8.97827            50.97867            97.48284            71.89918            49.20799             8.36241             8.60252            33.36003            54.74085            92.02300           101.01639            66.30675            74.96023            37.16401            85.53013            78.85293             7.80088            78.59230            67.30524            33.07777            38.14891            11.67898             8.06913            37.29317             8.77076            12.25528            12.29758           153.05856           131.38120            12.26773            67.17634            58.74756            16.75146            58.77896             9.09529             9.43588           147.35009           141.13433            13.58621            36.71557            61.26894            10.78450            99.25757            14.24331             7.83198             9.28690            33.49814           153.92206            28.37383            14.77584            14.85944             8.78759             8.27102             8.11463            13.78515            65.82663             8.13844            60.50102            12.39523            19.85702            31.04509            63.43681            31.07442           112.95796           120.09997            44.40848             9.12217            14.29675            17.81909             7.86856            13.79342            30.96163            11.02269            23.63617             9.01229            11.10518            46.28589            24.63351            12.04323            18.60559             7.98367           103.81168             8.95614            44.71387            52.06080            50.33301            12.40269            14.85262            28.42772            26.34728            64.28150            40.74641            78.96090            23.06692            69.17654            43.04504             8.19553             7.93797            53.72925            25.19693            22.05332            15.47713            29.04886            47.53639            63.86636            65.46396            50.12751            39.61759            92.82412            41.57863            35.16765            72.64548            66.86816            12.48893           132.36772            43.33909            40.42552            34.93799            12.86130             9.16198           110.59753            12.35736            34.67441            32.47707            17.69624            43.82441            34.69960            47.04852            63.90177            12.83169            33.68851            69.67795            74.31057            43.47048            19.08028           150.50122           132.37296            61.67451            74.78623           105.00395            11.77641            49.14022            55.79272            12.77364            54.07868            65.12761            42.74582            68.82527            30.70207            62.91393            10.22309            21.88584            10.45375            31.26916            40.52979            12.78801            19.98889            19.12904            62.48237            29.42755            42.09221            16.93686             8.05822           151.20553            79.72457           139.48165            61.09555            71.34658            44.44676            11.22828            11.29733            32.62844            33.46630            14.18505            13.11426            42.04451            33.90725            68.79278           112.30970            34.34712            46.49446            52.62866            55.99794            11.53150            16.61482           144.64239            65.16228            12.92061            60.46714            10.65875            66.78179            23.82759           120.91239            62.66969            47.39868            20.66995            48.95372            42.19171            17.19777            58.36387           117.75330            58.02576            13.52603           123.16328           144.60849             8.87862            66.02747           138.91443            13.94505           137.88849           143.79178             8.03888            97.68904            45.69898            66.80436            70.99622            63.00001             8.16774            79.71370            83.98870             9.23706            51.29095            73.38655             8.45907             8.27672            13.25509            29.53968            31.26709            23.11762            65.66598            50.47687             8.63277            12.74117            33.94657            15.02679            31.70492            62.71062            29.71154            34.73174            64.45505             8.03008            10.18288            90.18510            63.92694            20.16306            10.90800            14.39367             8.06499            57.29850            24.16545            18.03279            13.71829             7.81141            60.73142            45.63522            18.63794            14.92209            50.32885           137.35603            63.98493            28.01076            26.43540            37.99340            10.26830           102.95618            97.60842            62.53117            71.85012            48.56844            13.81976            37.98461            21.44183            11.41714             8.32873            11.78542            35.76427            60.40612            10.59573            13.30115             9.95528            21.66957            11.62086            52.19566            22.41104             7.79300             8.12531            12.30596            99.05871            62.17294            54.73943            36.41284            70.24710            23.65070            17.84364           124.67822            94.94878             9.45653            99.29172           136.59798            63.34402           151.89274            67.10739            16.39330            66.55499           129.71941            22.44616            66.60700            37.26594           107.59774            18.61696            13.79500            11.82295             7.96152            53.90435            71.96664            60.79757            97.56599            98.76542            80.02655            66.52881            60.99462           119.40616            10.46203            78.59397             8.08740            44.25344            67.59257           109.17316            28.31862            11.11393            65.93327            33.68087            88.65681             9.60270            36.08696            13.55321            87.16141            13.75432            46.33641           133.49182            78.58311             8.66809            20.83316           126.74834            66.05388            13.04222            61.08597            66.58714            11.76943            51.13248            80.05635            76.45944            78.65598           109.41990           123.86001            48.21348            64.50783           134.12230           123.41672            17.96744            12.80095            11.04893            60.66358           117.07704            71.39464             8.02604            75.82807             9.99025            95.72698           130.11495            65.93778            19.87929            20.57323             8.92839            57.50315           132.71087            44.83917            40.41205            22.87423            64.80371            78.86341            14.07306            13.78062            65.92977             8.38059             7.94799            64.01893            19.73866            66.73214            69.84598             8.04093            13.16426            10.71800            89.73759            69.52874            21.74247            79.88438           106.52328            13.62146            52.04466            67.36853           111.33389           134.11087            17.41396            55.77899            67.38081            52.35135            41.25646            33.49081             9.17642            14.76306            31.37800            25.43196           125.40929            52.45305            62.17627            88.03518            92.13617            51.89408            22.48464            19.29804            13.38093            12.60307            52.31152            13.50972            62.83132           116.95231            49.52345            53.27332            45.07798            10.20267            63.42840            57.51154            23.63894            65.53100            14.29263           119.63022            11.40536            85.34796            64.38150            70.50897             9.24543            42.23009            65.09095            22.52594            57.09507            92.14198            44.16313            34.98554           142.70305            13.13206             9.26505            23.93536            34.03402            11.89850             8.07192           161.58379            65.18313           139.99036            10.84831            41.46094            97.43869            51.12695            69.94600            63.08346            38.06732            77.60894            13.10932            14.64386            45.51417             7.92308            20.24172            21.70238            47.96395            17.67679            18.38082            62.53042            26.48079            67.37069            59.95796            30.51527            11.93742           106.76375            10.24086            50.78544            64.55838            53.73872            48.83059            11.68833            19.26259            40.90804            65.95136           122.22208            70.72026            19.10749             8.99654           142.20885            39.37159            26.37022            20.61131           136.70266             9.45250            47.26293            53.44634            63.07219           103.24424            91.07868            11.61899            24.65605            53.37217            11.71064            96.08766             8.80014            18.68293             9.44598            69.01379            29.12329           130.99092           120.35436            63.57866            67.34163            45.66542            59.44052            62.62690            55.15857           122.57906            14.44902            63.17133            69.27120            44.45967            41.50809            53.80681            19.80491           146.83481            14.16851            35.39098            71.35603            50.03737            68.34224            73.05833            31.17342            14.43588            51.46325            17.02112           132.96588           104.04190           137.20074            52.43330            77.39917            16.72286            57.58946           101.68182            36.95343            11.79577            17.36964            46.21597           118.75740           134.58473            54.34817           145.95057            22.16430            98.71642            11.98180            29.65937            14.66155            10.46256            14.75579            13.18411            59.07007            26.16377             8.02823           149.13370            13.48648            95.69355            69.81867            95.75367            10.80346            62.88403            96.49480           108.30927            11.72472            10.68040             8.97942            15.34127            78.13693           128.16280            17.26717            64.32859            24.48507             9.34577             7.80102            48.76198             7.81115             8.88941            41.06803            70.54555           134.48421            11.84283            32.99176            48.08028           118.77853            15.69579           103.27673            11.82326            21.77986            28.63472            11.19885            64.38321           236.75730            31.61418            32.94223            10.51151            53.29239           102.34277            10.88240            29.41778            83.43233            36.57507           116.24314            25.86390             8.62857           279.04400             9.17911             9.14538            23.12979            17.64433            72.62879            68.63788            53.75859            30.47530            45.63930             8.63598           145.11277             7.95096            64.75747            34.99479            18.25334            12.95252            66.33189            50.34868           146.34484            78.46250            64.76938            10.52518            24.81032            33.29308            13.35008           135.20727           106.05798            16.55388            85.70684            16.75391            68.40543            50.79782            29.54196           116.76475            70.71236           126.71399           138.00014            39.97475             8.36964             8.88820            93.97831            61.02058            11.56983            22.39879            73.30704           121.60948            75.06008            47.05115            11.55990            95.79879            48.33048            27.45577           115.63138            12.74365           101.50119            30.64726            58.66697           118.25322           108.80448           100.22699            65.96064            68.76868            49.20023            14.14447           162.70779            37.83080            56.31214            41.71949            78.31168            21.57916            57.77065            19.44309           154.50453             8.03352            36.61375            40.16530            66.27124            47.35786            75.22658            46.86610            56.88499            36.49812            15.08098             8.58897            32.76489            56.99942            63.11597            50.20852            50.46871           106.96791            40.04896            55.36474           119.15668            11.31657            11.24735            32.67777            11.04349            40.08337            25.25692            27.30753            58.18030            70.77232            47.07259           113.89387            12.52226            35.38515            14.45043            62.04346            72.68854            28.04974            61.40357           100.06316            19.65694            27.68361            65.14703            23.77675            31.37095            16.02621            30.17035            47.77266            64.32150           121.11286            49.17565            11.88601             8.43197            68.25539            66.71966            37.29168            35.27277            95.94970            57.85160           109.34660           173.16887            96.93434             8.95048            60.53930            20.25875           101.66020            50.95839            41.54735            48.13828            39.44659            37.03517            74.76937            57.44700            22.75519            62.54061           108.88535            75.54972            56.39511            11.55070            71.98610           165.10354            65.46754            84.08661            82.96645            66.11681            96.25816            75.10849            16.12954            65.95909           121.64700           121.62986            83.38849            59.69127            77.30970           178.92084            11.63045            42.45407            53.04253            13.22758           129.32402            19.76465            16.12791            65.30060            38.84761            57.61040            86.42885           105.18062            20.57648            26.93834            52.32454            41.63703            28.70566            62.61861            20.20612             8.51294           117.25776           134.62002           155.13199            66.48151            80.20295            59.95700            41.99790            40.81340             8.97748            85.16979           162.44441           124.87616            75.20182            72.73438           137.25832           160.23737            75.28057            92.79890            71.41861            29.99474            97.65899            69.17578            76.30837            44.27472           147.95282            14.43309            82.12430            26.24744            95.32997            35.56231            63.34036            56.33346            71.10353            10.52402            24.07193            48.26757            10.36295            41.07722            72.55507           150.08901            96.13829            93.77388            73.85003            73.67662            12.92520            12.27928            71.14086           113.90035           119.74547            10.21957            36.27255            96.88967            14.74709           114.94990            30.77542           184.62839            71.37639            54.63812            10.43639            65.68140            52.97868            52.70542            44.55261            31.32397             8.74181           136.03834            67.22612            12.19250            63.22373           132.93552           130.45650            15.71870             7.91542            63.94259            11.94781            10.51600           142.447